REMARK  5 active torsions:
REMARK  status: ('A' for Active; 'I' for Inactive)
REMARK    1  A    between atoms: O_2  and  C_13 
REMARK    2  A    between atoms: O_3  and  C_12 
REMARK    3  A    between atoms: O_5  and  C_16 
REMARK    4  A    between atoms: O_6  and  C_21 
REMARK    5  A    between atoms: C_8  and  C_11 
ROOT
HETATM    1  O   UNK     0      12.444  -0.600   5.617  0.00  0.00    -0.321 OA
HETATM    2  O   UNK     0      14.486  -3.667   3.863  0.00  0.00    -0.286 OA
HETATM    3  C   UNK     0      14.554  -1.718   5.181  0.00  0.00     0.085 A 
HETATM    4  C   UNK     0      12.382  -2.640   4.300  0.00  0.00     0.048 A 
HETATM    5  C   UNK     0      13.806  -0.687   5.749  0.00  0.00     0.094 A 
HETATM    6  C   UNK     0      13.862  -2.761   4.401  0.00  0.00     0.200 A 
HETATM    7  C   UNK     0      15.941  -1.756   5.349  0.00  0.00     0.119 A 
HETATM    8  C   UNK     0      16.573  -0.754   6.088  0.00  0.00     0.135 A 
HETATM    9  C   UNK     0      14.441   0.313   6.487  0.00  0.00     0.077 A 
HETATM   10  C   UNK     0      11.809  -1.589   4.906  0.00  0.00     0.159 A 
HETATM   11  C   UNK     0      15.825   0.277   6.656  0.00  0.00     0.104 A 
ENDROOT
BRANCH   4  12
HETATM   12  C   UNK     0      11.567  -3.634   3.583  0.00  0.00    -0.020 A 
HETATM   13  C   UNK     0      10.672  -4.442   4.285  0.00  0.00     0.015 A 
HETATM   14  C   UNK     0       9.898  -5.384   3.606  0.00  0.00     0.037 A 
HETATM   15  C   UNK     0      10.020  -5.520   2.223  0.00  0.00     0.068 A 
HETATM   16  C   UNK     0      10.914  -4.713   1.519  0.00  0.00     0.037 A 
HETATM   17  C   UNK     0      11.687  -3.771   2.198  0.00  0.00     0.015 A 
BRANCH  15  18
HETATM   18  O   UNK     0       9.266  -6.437   1.560  0.00  0.00    -0.356 OA
HETATM   19  C   UNK     0       9.155  -7.734   2.146  0.00  0.00     0.210 C 
ENDBRANCH  15  18
ENDBRANCH   4  12
BRANCH   7  20
HETATM   20  O   UNK     0      16.708  -2.746   4.811  0.00  0.00    -0.357 OA
HETATM   21  H   UNK     0      17.647  -2.599   5.004  0.00  0.00     0.218 HD
ENDBRANCH   7  20
BRANCH   8  22
HETATM   22  O   UNK     0      17.926  -0.781   6.258  0.00  0.00    -0.351 OA
HETATM   23  C   UNK     0      18.426  -1.531   7.361  0.00  0.00     0.210 C 
ENDBRANCH   8  22
BRANCH  11  24
HETATM   24  O   UNK     0      16.434   1.258   7.379  0.00  0.00    -0.358 OA
HETATM   25  H   UNK     0      17.392   1.088   7.386  0.00  0.00     0.217 HD
ENDBRANCH  11  24
TORSDOF 5
