          AutoDock 4.2 Release 4.2.6   
         (C) 1989-2012 The Scripps Research Institute
        AutoDock comes with ABSOLUTELY NO WARRANTY.
        AutoDock is free software, and you are welcome
        to redistribute it under certain conditions;
        for details type 'autodock4 -C'

                     main.cc  $Revision: 1.213 $

                   Compiled on Jul 18 2014 at 15:34:58


This file was created at:			7:07 04" p.m., 01/10/2026
                   on host:		"DESKTOP-8TJI1NH"
Current Working Directory = "C:\Users\Admin\.mgltools\1.5.7\ws"

      ________________________________________________________________

                   SETTING UP DEFAULT PARAMETER LIBRARY
      ________________________________________________________________


Random number generator was seeded with values 18940, 1768052224.
Docking parameter file (DPF) used for this docking:		C:/Users/Admin/.mgltools/1.5.7/ws/dock.dpf
DPF> autodock_parameter_version 4.2       # used by autodock to validate parameter set

	Autodock parameter version 4.2.
DPF> outlev 1                             # diagnostic output level

Output Level = 1  ADT-COMPATIBLE OUTPUT DURING DOCKING.
DPF> intelec                              # calculate internal electrostatics

Electrostatic energies will be calculated for all non-bonds between moving atoms.
DPF> seed pid time                        # seeds for random generator

Random number generator was seeded with values 18940, 1768052224.
DPF> ligand_types A C HD OA               # atoms types in ligand

DPF> fld HUMA.maps.fld                    # grid_data_file

Opening Grid Map Dimensions file:		HUMA.maps.fld
Grid Point Spacing =				0.447 Angstroms

Even Number of User-specified Grid Points =	36 x-points
						42 y-points
						38 z-points

Coordinates of Central Grid Point of Maps =	(11.837, -2.923, 4.726)
Macromolecule file used to create Grid Maps =	HUMA.pdbqt
Grid Parameter file used to create Grid Maps =	C:/Users/Admin/.mgltools/1.5.7/ws/grid.gpf
Minimum coordinates in grid = (3.791, -12.310, -3.767)
Maximum coordinates in grid = (19.883, 6.464, 13.219)

DPF> map HUMA.A.map                       # atom-specific affinity map

DPF> map HUMA.C.map                       # atom-specific affinity map

DPF> map HUMA.HD.map                      # atom-specific affinity map

DPF> map HUMA.OA.map                      # atom-specific affinity map

DPF> elecmap HUMA.e.map                   # electrostatics map

DPF> desolvmap HUMA.d.map                 # desolvation map

DPF> move IRI.pdbqt                       # small molecule

1,4-interactions will be _ignored_ in the non-bonded internal energy calculation.

Ligand PDBQT file = "IRI.pdbqt"

INPUT LIGAND PDBQT FILE:
________________________

INPUT-LIGAND-PDBQT: REMARK  5 active torsions:
INPUT-LIGAND-PDBQT: REMARK  status: ('A' for Active; 'I' for Inactive)
INPUT-LIGAND-PDBQT: REMARK    1  A    between atoms: O_2  and  C_13 
INPUT-LIGAND-PDBQT: REMARK    2  A    between atoms: O_3  and  C_12 
INPUT-LIGAND-PDBQT: REMARK    3  A    between atoms: O_5  and  C_16 
INPUT-LIGAND-PDBQT: REMARK    4  A    between atoms: O_6  and  C_21 
INPUT-LIGAND-PDBQT: REMARK    5  A    between atoms: C_8  and  C_11 
INPUT-LIGAND-PDBQT: ROOT
INPUT-LIGAND-PDBQT: HETATM    1  O   UNK     0       0.895   2.300  -0.206  0.00  0.00    -0.321 OA
INPUT-LIGAND-PDBQT: HETATM    2  O   UNK     0      -0.128  -1.625   0.241  0.00  0.00    -0.286 OA
INPUT-LIGAND-PDBQT: HETATM    3  C   UNK     0       1.579  -0.011   0.086  0.00  0.00     0.085 A 
INPUT-LIGAND-PDBQT: HETATM    4  C   UNK     0      -0.856   0.630   0.006  0.00  0.00     0.048 A 
INPUT-LIGAND-PDBQT: HETATM    5  C   UNK     0       1.869   1.343  -0.080  0.00  0.00     0.094 A 
INPUT-LIGAND-PDBQT: HETATM    6  C   UNK     0       0.169  -0.443   0.126  0.00  0.00     0.200 A 
INPUT-LIGAND-PDBQT: HETATM    7  C   UNK     0       2.613  -0.942   0.209  0.00  0.00     0.119 A 
INPUT-LIGAND-PDBQT: HETATM    8  C   UNK     0       3.939  -0.509   0.164  0.00  0.00     0.135 A 
INPUT-LIGAND-PDBQT: HETATM    9  C   UNK     0       3.196   1.773  -0.125  0.00  0.00     0.077 A 
INPUT-LIGAND-PDBQT: HETATM   10  C   UNK     0      -0.414   1.888  -0.146  0.00  0.00     0.159 A 
INPUT-LIGAND-PDBQT: HETATM   11  C   UNK     0       4.230   0.845  -0.002  0.00  0.00     0.104 A 
INPUT-LIGAND-PDBQT: ENDROOT
INPUT-LIGAND-PDBQT: BRANCH   4  12
INPUT-LIGAND-PDBQT: HETATM   12  C   UNK     0      -2.298   0.340   0.069  0.00  0.00    -0.020 A 
INPUT-LIGAND-PDBQT: HETATM   13  C   UNK     0      -3.009   0.067  -1.100  0.00  0.00     0.015 A 
INPUT-LIGAND-PDBQT: HETATM   14  C   UNK     0      -4.375  -0.209  -1.041  0.00  0.00     0.037 A 
INPUT-LIGAND-PDBQT: HETATM   15  C   UNK     0      -5.033  -0.211   0.190  0.00  0.00     0.068 A 
INPUT-LIGAND-PDBQT: HETATM   16  C   UNK     0      -4.324   0.062   1.360  0.00  0.00     0.037 A 
INPUT-LIGAND-PDBQT: HETATM   17  C   UNK     0      -2.958   0.337   1.300  0.00  0.00     0.015 A 
INPUT-LIGAND-PDBQT: BRANCH  15  18
INPUT-LIGAND-PDBQT: HETATM   18  O   UNK     0      -6.365  -0.480   0.249  0.00  0.00    -0.356 OA
INPUT-LIGAND-PDBQT: HETATM   19  C   UNK     0      -7.029  -0.751  -0.985  0.00  0.00     0.210 C 
INPUT-LIGAND-PDBQT: ENDBRANCH  15  18
INPUT-LIGAND-PDBQT: ENDBRANCH   4  12
INPUT-LIGAND-PDBQT: BRANCH   7  20
INPUT-LIGAND-PDBQT: HETATM   20  O   UNK     0       2.372  -2.274   0.373  0.00  0.00    -0.357 OA
INPUT-LIGAND-PDBQT: HETATM   21  H   UNK     0       1.420  -2.450   0.416  0.00  0.00     0.218 HD
INPUT-LIGAND-PDBQT: ENDBRANCH   7  20
INPUT-LIGAND-PDBQT: BRANCH   8  22
INPUT-LIGAND-PDBQT: HETATM   22  O   UNK     0       4.957  -1.410   0.282  0.00  0.00    -0.351 OA
INPUT-LIGAND-PDBQT: HETATM   23  C   UNK     0       5.447  -1.994  -0.922  0.00  0.00     0.210 C 
INPUT-LIGAND-PDBQT: ENDBRANCH   8  22
INPUT-LIGAND-PDBQT: BRANCH  11  24
INPUT-LIGAND-PDBQT: HETATM   24  O   UNK     0       5.522   1.276  -0.047  0.00  0.00    -0.358 OA
INPUT-LIGAND-PDBQT: HETATM   25  H   UNK     0       6.108   0.513   0.097  0.00  0.00     0.217 HD
INPUT-LIGAND-PDBQT: ENDBRANCH  11  24
INPUT-LIGAND-PDBQT: TORSDOF 5
________________________________________________________________________________

Total charge on ligand                               =	-0.001 e
REMARK  5 active torsions:
REMARK  status: ('A' for Active; 'I' for Inactive)
REMARK    1  A    between atoms: O_2  and  C_13 
REMARK    2  A    between atoms: O_3  and  C_12 
REMARK    3  A    between atoms: O_5  and  C_16 
REMARK    4  A    between atoms: O_6  and  C_21 
REMARK    5  A    between atoms: C_8  and  C_11 


Number of Rotatable Bonds in Small Molecule =	5 torsions
Number of atoms in ligand:  25

Number of non-hydrogen atoms in ligand:  23

Number of vibrational degrees of freedom of ligand:  69


Number of torsional degrees of freedom = 5
Estimated loss of torsional free energy upon binding = +1.4915 kcal/mol


DPF> about 0.301 -0.077 0.021            # small molecule center

Small molecule center of rotation =	(+0.301, -0.077, +0.021)

DPF> tran0 random                         # initial coordinates/A or random

Initial translation =			(5.032, -0.674, 6.116) Angstroms
DPF> quaternion0 random                   # initial orientation

Each run will begin with a new, random initial orientation.
Initial quaternion,  (x,y,z,w) =	( -0.219, 0.636, -0.664, -0.326 ),
DPF> dihe0 random                         # initial dihedrals (relative) or random

DPF> torsdof 5                            # torsional degrees of freedom

Number of torsional degrees of freedom = 5
Free energy coefficient for torsional degrees of freedom = 0.2983, the factory default value.

Estimated loss of torsional free energy upon binding = +1.4915 kcal/mol

DPF> rmstol 2.0                           # cluster_tolerance/A

Maximum RMS tolerance for conformational cluster analysis = 2.00 Angstroms
DPF> extnrg 1000.0                        # external grid energy

External grid energy (beyond grid map walls) = 1000.00

DPF> e0max 0.0 10000                      # max initial energy; max number of retries

Using user-specified maximum number of retries for simanneal initialization, 10000 retries.
If the simanneal initial energy is greater than e0max, 0.000,
then a new, random initial state will be created.

DPF> ga_pop_size 150                      # number of individuals in population

A population of 150 individuals will be used
DPF> ga_num_evals 2500000                 # maximum number of energy evaluations

There will be at most 2500000 function evaluations used.
DPF> ga_num_generations 27000             # maximum number of generations

The GA will run for at most 27000 generations.
DPF> ga_elitism 1                         # number of top individuals to survive to next generation

The 1 best will be preserved each GA generation.
DPF> ga_mutation_rate 0.02                # rate of gene mutation

The mutation rate is 0.020000.
DPF> ga_crossover_rate 0.8                # rate of crossover

The crossover rate is 0.800000.
DPF> ga_window_size 10                    # 

The GA's selection window is 10 generations.
DPF> ga_cauchy_alpha 0.0                  # Alpha parameter of Cauchy distribution

The alpha parameter (for the Cauchy distribution) is being set to 0.000000.
DPF> ga_cauchy_beta 1.0                   # Beta parameter Cauchy distribution

The beta parameter (for the Cauchy distribution) is being set to 1.000000.
DPF> set_ga                               # set the above parameters for GA or LGA

DPF> sw_max_its 300                       # iterations of Solis & Wets local search

Solis & Wets algorithms will perform at most 300 iterations.
DPF> sw_max_succ 4                        # consecutive successes before changing rho

Solis & Wets algorithms expand rho every 4 in a row successes.
DPF> sw_max_fail 4                        # consecutive failures before changing rho

Solis & Wets algorithms contract rho every 4 in a row failures.
DPF> sw_rho 1.0                           # size of local search space to sample

rho is set to 1.000000.
DPF> sw_lb_rho 0.01                       # lower bound on rho

rho will never get smaller than 0.010000.
DPF> ls_search_freq 0.06                  # probability of performing local search on individual

Local search will be performed with frequency 0.060000.
DPF> set_psw1                             # set the above pseudo-Solis & Wets parameters

Creating a new Local Search object using the pseudo-Solis-Wets algorithm (pSW1) with the current settings.

DPF> unbound_model extended               # state of unbound ligand

C:/Users/Admin/.mgltools/1.5.7/ws/autodock4.exe: WARNING: Using autodock4.0 unbound extended model in autodock4.2!
Computing the energy of the unbound state of the ligand,
given the torsion tree defined in the ligand file.


	BEGINNING COMPUTATION OF UNBOUND EXTENDED STATE USING LGA
	_________________________________________________________


Date:	Sat Jan 10 19:07:05 2026
Beginning LAMARCKIAN GENETIC ALGORITHM (LGA), with a maximum of 1000000 energy evaluations.

Final-Value: -987.882

Finished Lamarckian Genetic Algorithm (LGA)
7:07 14" p.m., 01/10/2026

Total number of Energy Evaluations: 1000489
Total number of Generations:        1179


		Ligand Intramolecular Energy Analysis
		=====================================

Non-bond  Atom1-Atom2  Distance   Total        Elec     vdW        Hb     Desolv     Sol_fn   Type Dielectric
________  ___________  ________   ______  _________  ________ ________  ________   ________   ____ __________
      1       1-13      4.6272   -0.0157    -0.0022   -0.0151   +0.0000   +0.0016    +0.0579   1    22.400
      2       1-14      5.9282   -0.0056    -0.0030   -0.0036   +0.0000   +0.0011    +0.0341   1    30.958
      3       1-15      6.4496   -0.0057    -0.0046   -0.0022   +0.0000   +0.0010    +0.0266   1    34.530
      4       1-16      5.8574   -0.0059    -0.0031   -0.0039   +0.0000   +0.0011    +0.0352   1    30.472
      5       1-17      4.5365   -0.0173    -0.0023   -0.0167   +0.0000   +0.0017    +0.0598   1    21.823
      6       1-18      7.7866   +0.0159    +0.0157   -0.0004   +0.0000   +0.0005    +0.0127   1    43.579
      7       1-19      8.3279   -0.0076    -0.0080   +0.0000   +0.0000   +0.0004    +0.0091   1    47.073
      8       1-21      5.4360   -0.0198    -0.0218   +0.0000   -0.0001   +0.0021    +0.0423   1    27.641
      9       1-23      6.2916   -0.0161    -0.0150   -0.0025   +0.0000   +0.0014    +0.0287   1    33.438
     10       1-25      4.6353   -0.0291    -0.0313   +0.0000   -0.0007   +0.0029    +0.0577   1    22.442
     11       2-13      3.4879   -0.0312    -0.0037   -0.0288   +0.0000   +0.0012    +0.0827   1    15.654
     12       2-14      4.5717   -0.0199    -0.0049   -0.0161   +0.0000   +0.0011    +0.0591   1    22.038
     13       2-15      5.1061   -0.0146    -0.0070   -0.0088   +0.0000   +0.0012    +0.0484   1    25.469
     14       2-16      4.7444   -0.0167    -0.0045   -0.0132   +0.0000   +0.0011    +0.0555   1    23.137
     15       2-17      3.7124   -0.0308    -0.0032   -0.0288   +0.0000   +0.0012    +0.0777   1    16.917
     16       2-18      6.3430   +0.0218    +0.0222   -0.0014   +0.0000   +0.0010    +0.0280   1    33.794
     17       2-19      7.4772   -0.0094    -0.0090   -0.0009   +0.0000   +0.0006    +0.0153   1    41.525
     18       2-21      3.2001   -0.0900    -0.0646   +0.0000   -0.0299   +0.0044    +0.0891   1    14.090
     19       2-23      6.0726   -0.0164    -0.0145   -0.0031   +0.0000   +0.0011    +0.0319   1    31.952
     20       2-25      6.8558   -0.0103    -0.0113   +0.0000   -0.0000   +0.0011    +0.0216   1    37.314
     21       3-13      4.6686   -0.0193    +0.0006   -0.0199   +0.0000   +0.0001    +0.0571   1    22.654
     22       3-14      6.0081   -0.0042    +0.0008   -0.0053   +0.0000   +0.0003    +0.0328   1    31.511
     23       3-15      6.6163   -0.0013    +0.0011   -0.0030   +0.0000   +0.0005    +0.0244   1    35.662
     24       3-16      6.0947   -0.0038    +0.0008   -0.0049   +0.0000   +0.0003    +0.0316   1    32.092
     25       3-17      4.7801   -0.0174    +0.0005   -0.0181   +0.0000   +0.0001    +0.0548   1    23.367
     26       3-18      7.9602   -0.0039    -0.0040   -0.0006   +0.0000   +0.0006    +0.0115   1    44.709
     27       3-19      8.8579   +0.0021    +0.0019   +0.0000   +0.0000   +0.0003    +0.0064   1    50.334
     28       3-23      4.6167   -0.0102    +0.0081   -0.0208   +0.0000   +0.0025    +0.0581   1    22.336
     29       3-25      4.5483   +0.0124    +0.0087   -0.0020   +0.0000   +0.0058    +0.0596   1    21.888
     30       4-19      6.4021   -0.0007    +0.0022   -0.0036   +0.0000   +0.0008    +0.0272   1    34.197
     31       4-21      5.0160   +0.0077    +0.0039   -0.0011   +0.0000   +0.0049    +0.0501   1    24.886
     32       4-23      7.0809   +0.0003    +0.0017   -0.0020   +0.0000   +0.0006    +0.0191   1    38.843
     33       4-25      6.5843   +0.0043    +0.0021   -0.0002   +0.0000   +0.0024    +0.0248   1    35.451
     34       5-13      5.1255   -0.0122    +0.0005   -0.0129   +0.0000   +0.0003    +0.0480   1    25.588
     35       5-14      6.4905   -0.0023    +0.0007   -0.0033   +0.0000   +0.0003    +0.0260   1    34.812
     36       5-15      7.0799   -0.0004    +0.0011   -0.0020   +0.0000   +0.0005    +0.0191   1    38.828
     37       5-16      6.5008   -0.0022    +0.0007   -0.0033   +0.0000   +0.0003    +0.0259   1    34.878
     38       5-17      5.1389   -0.0120    +0.0005   -0.0127   +0.0000   +0.0002    +0.0477   1    25.688
     39       5-18      8.4397   -0.0034    -0.0039   +0.0000   +0.0000   +0.0005    +0.0085   1    47.777
     40       5-19      9.1552   +0.0022    +0.0019   +0.0000   +0.0000   +0.0002    +0.0052   1    52.093
     41       5-21      4.2440   +0.0147    +0.0113   -0.0030   +0.0000   +0.0064    +0.0660   1    20.030
     42       5-23      4.9635   -0.0053    +0.0076   -0.0152   +0.0000   +0.0024    +0.0511   1    24.541
     43       5-25      3.7677   +0.0164    +0.0147   -0.0057   +0.0000   +0.0074    +0.0765   1    17.227
     44       6-14      4.6408   -0.0141    +0.0033   -0.0204   +0.0000   +0.0030    +0.0576   1    22.485
     45       6-15      5.2082   -0.0043    +0.0047   -0.0119   +0.0000   +0.0030    +0.0465   1    26.124
     46       6-16      4.7437   -0.0126    +0.0031   -0.0186   +0.0000   +0.0029    +0.0555   1    23.137
     47       6-18      6.5362   -0.0146    -0.0145   -0.0020   +0.0000   +0.0019    +0.0254   1    35.124
     48       6-19      7.5022   +0.0062    +0.0063   -0.0014   +0.0000   +0.0013    +0.0151   1    41.692
     49       6-21      3.5534   +0.0363    +0.0358   -0.0074   +0.0000   +0.0079    +0.0812   1    16.023
     50       6-23      5.8534   +0.0078    +0.0110   -0.0062   +0.0000   +0.0030    +0.0353   1    30.454
     51       6-25      5.9957   +0.0136    +0.0108   -0.0004   +0.0000   +0.0032    +0.0330   1    31.422
     52       7-13      5.7527   -0.0058    +0.0005   -0.0068   +0.0000   +0.0005    +0.0369   1    29.779
     53       7-14      7.0496   -0.0008    +0.0008   -0.0020   +0.0000   +0.0004    +0.0194   1    38.632
     54       7-15      7.6816   +0.0004    +0.0011   -0.0012   +0.0000   +0.0005    +0.0136   1    42.885
     55       7-16      7.1909   -0.0007    +0.0007   -0.0018   +0.0000   +0.0004    +0.0180   1    39.586
     56       7-17      5.9257   -0.0048    +0.0005   -0.0057   +0.0000   +0.0005    +0.0341   1    30.940
     57       7-18      8.9912   -0.0040    -0.0043   +0.0000   +0.0000   +0.0004    +0.0059   1    51.126
     58       7-19      9.9926   +0.0022    +0.0021   +0.0000   +0.0000   +0.0002    +0.0028   1    56.672
     59       7-25      4.3249   +0.0171    +0.0136   -0.0027   +0.0000   +0.0062    +0.0643   1    20.517
     60       8-13      6.9903   -0.0014    +0.0004   -0.0021   +0.0000   +0.0004    +0.0201   1    38.223
     61       8-14      8.3266   +0.0009    +0.0006   +0.0000   +0.0000   +0.0003    +0.0091   1    47.061
     62       8-15      8.9776   +0.0012    +0.0009   +0.0000   +0.0000   +0.0002    +0.0059   1    51.054
     63       8-16      8.4489   +0.0008    +0.0006   +0.0000   +0.0000   +0.0002    +0.0084   1    47.834
     64       8-17      7.1359   -0.0012    +0.0003   -0.0019   +0.0000   +0.0004    +0.0185   1    39.216
     65       8-18     10.3054   -0.0036    -0.0037   +0.0000   +0.0000   +0.0001    +0.0022   1    58.239
     66       8-19     11.2516   +0.0019    +0.0019   +0.0000   +0.0000   +0.0001    +0.0010   1    62.490
     67       9-13      6.4865   -0.0031    +0.0002   -0.0034   +0.0000   -0.0000    +0.0261   1    34.779
     68       9-14      7.8612   -0.0006    +0.0004   -0.0010   +0.0000   +0.0001    +0.0122   1    44.064
     69       9-15      8.4706   +0.0008    +0.0006   +0.0000   +0.0000   +0.0002    +0.0083   1    47.973
     70       9-16      7.8721   -0.0006    +0.0004   -0.0010   +0.0000   +0.0001    +0.0121   1    44.142
     71       9-17      6.5002   -0.0031    +0.0002   -0.0033   +0.0000   -0.0000    +0.0259   1    34.878
     72       9-18      9.8299   -0.0022    -0.0023   +0.0000   +0.0000   +0.0002    +0.0032   1    55.827
     73       9-19     10.5171   +0.0013    +0.0012   +0.0000   +0.0000   +0.0001    +0.0019   1    59.254
     74       9-21      4.5857   +0.0115    +0.0077   -0.0019   +0.0000   +0.0057    +0.0588   1    22.123
     75       9-23      4.2981   -0.0136    +0.0086   -0.0248   +0.0000   +0.0026    +0.0648   1    20.363
     76      10-14      4.6134   -0.0160    +0.0027   -0.0208   +0.0000   +0.0022    +0.0582   1    22.315
     77      10-15      5.0841   -0.0072    +0.0039   -0.0135   +0.0000   +0.0024    +0.0488   1    25.329
     78      10-16      4.5260   -0.0173    +0.0028   -0.0223   +0.0000   +0.0022    +0.0600   1    21.759
     79      10-18      6.4161   -0.0124    -0.0120   -0.0022   +0.0000   +0.0018    +0.0270   1    34.297
     80      10-19      6.9633   +0.0051    +0.0059   -0.0022   +0.0000   +0.0014    +0.0204   1    38.040
     81      10-21      5.6778   +0.0129    +0.0097   -0.0005   +0.0000   +0.0037    +0.0381   1    29.262
     82      10-23      7.1579   +0.0050    +0.0055   -0.0018   +0.0000   +0.0013    +0.0183   1    39.365
     83      10-25      5.9532   +0.0116    +0.0087   -0.0004   +0.0000   +0.0033    +0.0337   1    31.137
     84      11-13      7.3040   -0.0012    +0.0002   -0.0016   +0.0000   +0.0002    +0.0169   1    40.359
     85      11-14      8.6818   +0.0005    +0.0004   +0.0000   +0.0000   +0.0001    +0.0072   1    49.267
     86      11-15      9.3252   +0.0008    +0.0007   +0.0000   +0.0000   +0.0001    +0.0046   1    53.061
     87      11-16      8.7470   +0.0005    +0.0004   +0.0000   +0.0000   +0.0001    +0.0069   1    49.671
     88      11-17      7.3817   -0.0011    +0.0002   -0.0015   +0.0000   +0.0001    +0.0162   1    40.875
     89      11-18     10.6809   -0.0026    -0.0027   +0.0000   +0.0000   +0.0001    +0.0016   1    60.013
     90      11-19     11.4878   +0.0014    +0.0014   +0.0000   +0.0000   +0.0000    +0.0008   1    63.437
     91      11-21      3.9214   +0.0174    +0.0149   -0.0046   +0.0000   +0.0071    +0.0731   1    18.119
     92      12-19      4.9679   -0.0158    -0.0016   -0.0151   +0.0000   +0.0010    +0.0511   1    24.561
     93      12-21      5.9935   +0.0018    -0.0011   -0.0004   +0.0000   +0.0032    +0.0331   1    31.404
     94      12-23      8.3837   -0.0003    -0.0005   +0.0000   +0.0000   +0.0002    +0.0088   1    47.427
     95      12-25      8.0554   +0.0005    -0.0006   +0.0000   +0.0000   +0.0010    +0.0108   1    45.329
     96      13-19      4.4786   -0.0204    +0.0015   -0.0230   +0.0000   +0.0011    +0.0610   1    21.457
     97      13-20      5.9062   -0.0037    -0.0014   -0.0037   +0.0000   +0.0014    +0.0344   1    30.815
     98      13-21      6.6451   +0.0028    +0.0006   -0.0002   +0.0000   +0.0023    +0.0241   1    35.872
     99      13-22      8.1025   -0.0003    -0.0007   +0.0000   +0.0000   +0.0004    +0.0105   1    45.629
    100      13-23      8.8629   +0.0004    +0.0003   +0.0000   +0.0000   +0.0001    +0.0064   1    50.366
    101      13-24      8.6251   -0.0003    -0.0006   +0.0000   +0.0000   +0.0003    +0.0075   1    48.924
    102      13-25      8.8462   +0.0010    +0.0003   +0.0000   +0.0000   +0.0006    +0.0065   1    50.271
    103      14-20      7.0766   -0.0026    -0.0022   -0.0012   +0.0000   +0.0009    +0.0192   1    38.813
    104      14-21      7.7664   +0.0023    +0.0011   -0.0001   +0.0000   +0.0013    +0.0129   1    43.446
    105      14-22      9.4019   -0.0010    -0.0012   +0.0000   +0.0000   +0.0002    +0.0044   1    53.493
    106      14-23     10.1783   +0.0007    +0.0006   +0.0000   +0.0000   +0.0001    +0.0024   1    57.614
    107      14-24     10.0095   -0.0010    -0.0011   +0.0000   +0.0000   +0.0001    +0.0028   1    56.760
    108      14-25     10.2280   +0.0009    +0.0006   +0.0000   +0.0000   +0.0002    +0.0023   1    57.857
    109      15-20      7.6903   -0.0035    -0.0034   -0.0007   +0.0000   +0.0007    +0.0135   1    42.939
    110      15-21      8.2616   +0.0027    +0.0018   +0.0000   +0.0000   +0.0009    +0.0095   1    46.655
    111      15-22     10.0629   -0.0018    -0.0019   +0.0000   +0.0000   +0.0001    +0.0027   1    57.031
    112      15-23     10.9738   +0.0010    +0.0010   +0.0000   +0.0000   +0.0000    +0.0013   1    61.317
    113      15-24     10.6620   -0.0017    -0.0018   +0.0000   +0.0000   +0.0001    +0.0016   1    59.926
    114      15-25     10.8465   +0.0012    +0.0010   +0.0000   +0.0000   +0.0001    +0.0014   1    60.759
    115      16-20      7.2804   -0.0024    -0.0021   -0.0010   +0.0000   +0.0008    +0.0171   1    40.200
    116      16-21      7.7480   +0.0023    +0.0011   -0.0001   +0.0000   +0.0013    +0.0130   1    43.327
    117      16-22      9.5591   -0.0010    -0.0012   +0.0000   +0.0000   +0.0002    +0.0039   1    54.371
    118      16-23     10.5920   +0.0006    +0.0006   +0.0000   +0.0000   +0.0000    +0.0017   1    59.607
    119      16-24     10.0676   -0.0010    -0.0011   +0.0000   +0.0000   +0.0001    +0.0026   1    57.054
    120      16-25     10.2132   +0.0009    +0.0006   +0.0000   +0.0000   +0.0002    +0.0024   1    57.781
    121      17-19      4.4446   -0.0208    +0.0016   -0.0234   +0.0000   +0.0011    +0.0617   1    21.262
    122      17-20      6.1496   -0.0029    -0.0013   -0.0029   +0.0000   +0.0013    +0.0307   1    32.475
    123      17-21      6.6244   +0.0028    +0.0006   -0.0002   +0.0000   +0.0024    +0.0243   1    35.727
    124      17-22      8.2851   -0.0003    -0.0006   +0.0000   +0.0000   +0.0004    +0.0094   1    46.799
    125      17-23      9.3354   +0.0004    +0.0003   +0.0000   +0.0000   +0.0001    +0.0046   1    53.118
    126      17-24      8.6928   -0.0003    -0.0006   +0.0000   +0.0000   +0.0003    +0.0072   1    49.344
    127      17-25      8.8294   +0.0010    +0.0003   +0.0000   +0.0000   +0.0006    +0.0065   1    50.165
    128      18-20      8.9221   +0.0134    +0.0131   +0.0000   +0.0000   +0.0003    +0.0061   1    50.723
    129      18-21      9.4687   -0.0069    -0.0071   +0.0000   +0.0000   +0.0002    +0.0042   1    53.863
    130      18-22     11.3616   +0.0082    +0.0082   +0.0000   +0.0000   +0.0000    +0.0009   1    62.933
    131      18-23     12.2678   -0.0043    -0.0043   +0.0000   +0.0000   +0.0000    +0.0004   1    66.240
    132      18-24     12.0200   +0.0076    +0.0076   +0.0000   +0.0000   +0.0000    +0.0005   1    65.402
    133      18-25     12.2062   -0.0045    -0.0045   +0.0000   +0.0000   +0.0000    +0.0004   1    66.036
    134      19-20     10.0579   -0.0059    -0.0061   +0.0000   +0.0000   +0.0002    +0.0027   1    57.007
    135      19-21     10.6368   +0.0035    +0.0034   +0.0000   +0.0000   +0.0002    +0.0017   1    59.811
    136      19-22     12.3814   -0.0042    -0.0042   +0.0000   +0.0000   +0.0000    +0.0004   1    66.611
    137      19-23     13.2626   +0.0023    +0.0022   +0.0000   +0.0000   +0.0000    +0.0001   1    69.168
    138      19-24     12.7945   -0.0040    -0.0040   +0.0000   +0.0000   +0.0000    +0.0002   1    67.878
    139      19-25     12.8897   +0.0024    +0.0024   +0.0000   +0.0000   +0.0000    +0.0002   1    68.151
    140      20-23      3.7387   -0.0789    -0.0549   -0.0288   +0.0000   +0.0048    +0.0771   1    17.060
    141      20-25      5.5259   -0.0213    -0.0232   +0.0000   -0.0001   +0.0020    +0.0407   1    28.250
    142      21-22      2.6348   -0.2954    -0.1206   +0.0000   -0.1798   +0.0050    +0.1012   1    11.246
    143      21-23      3.8042   +0.0342    +0.0322   -0.0054   +0.0000   +0.0074    +0.0756   1    17.440
    144      21-24      4.9032   -0.0286    -0.0308   +0.0000   -0.0004   +0.0026    +0.0523   1    24.153
    145      21-25      5.6959   +0.0132    +0.0132   -0.0000   +0.0000   +0.0000    +0.0378   1    29.392
    146      22-25      3.7128   -0.0596    -0.0566   +0.0000   -0.0068   +0.0039    +0.0777   1    16.917
    147      23-24      2.9437   -0.0840    -0.0934   +0.0035   +0.0000   +0.0059    +0.0947   1    12.772
    148      23-25      3.8933   +0.0328    +0.0304   -0.0048   +0.0000   +0.0071    +0.0737   1    17.956
                                ________   ________  ________  ________  ________
Total                            -0.8918    -0.2840   -0.5923    -0.2178   +0.2024
                                ________  ________  ________  ________ ________
                                   Total       Elec       vdW        Hb    Desolv


	Per-atom Intramolecular Energy Analysis
	=======================================

Atom Type   Total     Elec       vdW        Hb     Desolv 
____ ___  ________  ________  ________  ________  ________
   1  OA   -0.0535   -0.0377   -0.0222   -0.0004   +0.0069
   2  OA   -0.1088   -0.0503   -0.0505   -0.0149   +0.0070
   3  A    -0.0228   +0.0092   -0.0373   +0.0000   +0.0053
   4  A    +0.0058   +0.0049   -0.0035   +0.0000   +0.0043
   5  A    -0.0022   +0.0175   -0.0291   +0.0000   +0.0093
   6  A    +0.0092   +0.0302   -0.0341   +0.0000   +0.0131
   7  A    +0.0018   +0.0075   -0.0101   +0.0000   +0.0045
   8  A    -0.0007   +0.0005   -0.0020   +0.0000   +0.0009
   9  A    -0.0048   +0.0085   -0.0177   +0.0000   +0.0044
  10  A    -0.0091   +0.0136   -0.0319   +0.0000   +0.0091
  11  A    +0.0079   +0.0078   -0.0039   +0.0000   +0.0040
  12  A    -0.0069   -0.0019   -0.0078   +0.0000   +0.0027
  13  A    -0.0552   -0.0016   -0.0588   +0.0000   +0.0053
  14  A    -0.0314   -0.0002   -0.0370   +0.0000   +0.0058
  15  A    -0.0162   -0.0004   -0.0216   +0.0000   +0.0058
  16  A    -0.0294   -0.0001   -0.0351   +0.0000   +0.0057
  17  A    -0.0540   -0.0014   -0.0577   +0.0000   +0.0051
  18  OA   +0.0023   +0.0017   -0.0033   +0.0000   +0.0039
  19  C    -0.0290   +0.0014   -0.0348   +0.0000   +0.0044
  20  OA   -0.0539   -0.0407   -0.0192   -0.0001   +0.0061
  21  HD   -0.1373   -0.0543   -0.0124   -0.1051   +0.0345
  22  OA   -0.1776   -0.0894   +0.0000   -0.0933   +0.0051
  23  C    -0.0718   -0.0361   -0.0560   +0.0000   +0.0203
  24  OA   -0.0566   -0.0629   +0.0017   -0.0002   +0.0047
  25  HD   +0.0022   -0.0100   -0.0081   -0.0038   +0.0241


Total Intramolecular Interaction Energy   = -0.892 kcal/mol


The internal energy of the unbound extended state was computed to be -0.892 kcal/mol

NOTE:   The AutoDock internal energy of the "extended" state was negative.

NOTE:   The unbound state was set to the "extended" state.



The internal energy of the unbound state was set to -0.892 kcal/mol



	FINAL UNBOUND STATE
	___________________


Detailed state:  trans 5.853 -2.827 6.987 quatxyzw 0.449520 -0.398415 0.794624 -0.088147 center 0.301 -0.077 0.021 ntor 5 92.7899 124.4202 152.7023 172.7063 171.8089
State:	  5.853  -2.827   6.987   0.451 -0.400  0.798 -169.886     92.79  124.42  152.70  172.71  171.81

UNBOUND: MODEL        0
UNBOUND: USER    Run = 0
UNBOUND: USER    DPF = C:/Users/Admin/.mgltools/1.5.7/ws/dock.dpf
UNBOUND: USER  
UNBOUND: USER    (1) Final Intermolecular Energy     =   +0.00 kcal/mol
UNBOUND: USER        vdW + Hbond + desolv Energy     =   +0.00 kcal/mol
UNBOUND: USER        Electrostatic Energy            =   +0.00 kcal/mol
UNBOUND: USER    (2) Final Total Internal Energy     =   -0.89 kcal/mol
UNBOUND: USER    (3) Torsional Free Energy           =   +1.49 kcal/mol
UNBOUND: USER    (4) Unbound System's Energy         =   -0.89 kcal/mol
UNBOUND: USER    
UNBOUND: USER    
UNBOUND: USER    NEWDPF move IRI.pdbqt
UNBOUND: USER    NEWDPF about 0.301000 -0.077000 0.021000
UNBOUND: USER    NEWDPF tran0 5.852899 -2.826752 6.987157
UNBOUND: USER    NEWDPF quaternion0 0.449520 -0.398415 0.794624 -0.088147
UNBOUND: USER    NEWDPF axisangle0 0.451276 -0.399972 0.797729 -169.885964
UNBOUND: USER    NEWDPF quat0 0.451276 -0.399972 0.797729 -169.885964
UNBOUND: USER    NEWDPF dihe0 92.79 124.42 152.70 172.71 171.81 
UNBOUND: USER  keepresnum = 1 
UNBOUND: USER  
UNBOUND: REMARK  5 active torsions:
UNBOUND: REMARK  status: ('A' for Active; 'I' for Inactive)
UNBOUND: REMARK    1  A    between atoms: O_2  and  C_13 
UNBOUND: REMARK    2  A    between atoms: O_3  and  C_12 
UNBOUND: REMARK    3  A    between atoms: O_5  and  C_16 
UNBOUND: REMARK    4  A    between atoms: O_6  and  C_21 
UNBOUND: REMARK    5  A    between atoms: C_8  and  C_11 
UNBOUND: USER                              x       y       z     vdW  Elec       q    Type
UNBOUND: USER                           _______ _______ _______ _____ _____    ______ ____
UNBOUND: ROOT
UNBOUND: ATOM      1  O   UNK     0       4.178  -4.380   6.073 +0.00 +0.00    -0.321 OA
UNBOUND: ATOM      2  O   UNK     0       7.015  -1.857   7.569 +0.00 +0.00    -0.286 OA
UNBOUND: ATOM      3  C   UNK     0       5.120  -3.196   7.971 +0.00 +0.00    +0.085 A 
UNBOUND: ATOM      4  C   UNK     0       6.162  -3.035   5.684 +0.00 +0.00    +0.048 A 
UNBOUND: ATOM      5  C   UNK     0       4.170  -4.044   7.403 +0.00 +0.00    +0.094 A 
UNBOUND: ATOM      6  C   UNK     0       6.180  -2.629   7.116 +0.00 +0.00    +0.200 A 
UNBOUND: ATOM      7  C   UNK     0       5.063  -2.888   9.333 +0.00 +0.00    +0.119 A 
UNBOUND: ATOM      8  C   UNK     0       4.049  -3.434  10.121 +0.00 +0.00    +0.135 A 
UNBOUND: ATOM      9  C   UNK     0       3.157  -4.588   8.193 +0.00 +0.00    +0.077 A 
UNBOUND: ATOM     10  C   UNK     0       5.181  -3.862   5.291 +0.00 +0.00    +0.159 A 
UNBOUND: ATOM     11  C   UNK     0       3.099  -4.282   9.553 +0.00 +0.00    +0.104 A 
UNBOUND: ENDROOT
UNBOUND: BRANCH   4  12
UNBOUND: ATOM     12  C   UNK     0       7.184  -2.572   4.730 +0.00 +0.00    -0.020 A 
UNBOUND: ATOM     13  C   UNK     0       8.429  -3.201   4.678 +0.00 +0.00    +0.015 A 
UNBOUND: ATOM     14  C   UNK     0       9.397  -2.763   3.774 +0.00 +0.00    +0.037 A 
UNBOUND: ATOM     15  C   UNK     0       9.121  -1.694   2.921 +0.00 +0.00    +0.068 A 
UNBOUND: ATOM     16  C   UNK     0       7.878  -1.064   2.972 +0.00 +0.00    +0.037 A 
UNBOUND: ATOM     17  C   UNK     0       6.910  -1.502   3.875 +0.00 +0.00    +0.015 A 
UNBOUND: BRANCH  15  18
UNBOUND: ATOM     18  O   UNK     0      10.065  -1.266   2.039 +0.00 +0.00    -0.356 OA
UNBOUND: ATOM     19  C   UNK     0      10.031  -1.827   0.727 +0.00 +0.00    +0.210 C 
UNBOUND: ENDBRANCH  15  18
UNBOUND: ENDBRANCH   4  12
UNBOUND: BRANCH   7  20
UNBOUND: ATOM     20  O   UNK     0       5.973  -2.064   9.927 +0.00 +0.00    -0.357 OA
UNBOUND: ATOM     21  H   UNK     0       5.532  -1.313  10.352 +0.00 +0.00    +0.218 HD
UNBOUND: ENDBRANCH   7  20
UNBOUND: BRANCH   8  22
UNBOUND: ATOM     22  O   UNK     0       3.983  -3.139  11.451 +0.00 +0.00    -0.351 OA
UNBOUND: ATOM     23  C   UNK     0       4.135  -4.224  12.363 +0.00 +0.00    +0.210 C 
UNBOUND: ENDBRANCH   8  22
UNBOUND: BRANCH  11  24
UNBOUND: ATOM     24  O   UNK     0       2.105  -4.819  10.315 +0.00 +0.00    -0.358 OA
UNBOUND: ATOM     25  H   UNK     0       1.458  -5.244   9.726 +0.00 +0.00    +0.217 HD
UNBOUND: ENDBRANCH  11  24
UNBOUND: TORSDOF 5
UNBOUND: TER
UNBOUND: ENDMDL
________________________________________________________________________________

DPF> ga_run 10                            # do this many hybrid GA-LS runs

centering ligand on specified point: 0.301 -0.077 0.021
Furthest true ligand atom from "about" center is 7.429 Angstroms (maxrad).
Number of requested GA dockings = 10 runs
Unbound model to be used is 'extended' [AutoDock 4.0 default].

	BEGINNING GENETIC ALGORITHM DOCKING 1 of 10
Run: 1 Seed: 861423997 553503855 [ Run 1 of 10 GA/GALS ]
Beginning LAMARCKIAN GENETIC ALGORITHM (LGA), with a maximum of 2500000 energy evaluations.

Final-Value: -11.246


	FINAL GENETIC ALGORITHM DOCKED STATE
	_______________________________________________


Detailed state:  trans 13.699 -2.417 4.531 quatxyzw -0.295119 0.134357 -0.358597 0.875364 center 0.301 -0.077 0.021 ntor 5 -44.0315 -180.0000 -177.2177 3.6040 -155.7261
State:	 13.699  -2.417   4.531  -0.610  0.278 -0.742 57.824    -44.03 -180.00 -177.22    3.60 -155.73

DOCKED: MODEL        1
DOCKED: USER    Run = 1
DOCKED: USER    DPF = C:/Users/Admin/.mgltools/1.5.7/ws/dock.dpf
DOCKED: USER  
DOCKED: USER    Estimated Free Energy of Binding    =   -8.86 kcal/mol  [=(1)+(2)+(3)-(4)]
DOCKED: USER    Estimated Inhibition Constant, Ki   =  318.89 nM (nanomolar)  [Temperature = 298.15 K]
DOCKED: USER    
DOCKED: USER    (1) Final Intermolecular Energy     =   -9.33 kcal/mol
DOCKED: USER        vdW + Hbond + desolv Energy     =   -9.16 kcal/mol
DOCKED: USER        Electrostatic Energy            =   -0.16 kcal/mol
DOCKED: USER    (2) Final Total Internal Energy     =   -1.92 kcal/mol
DOCKED: USER    (3) Torsional Free Energy           =   +1.49 kcal/mol
DOCKED: USER    (4) Unbound System's Energy         =   -0.89 kcal/mol
DOCKED: USER    
DOCKED: USER    
DOCKED: USER    NEWDPF move IRI.pdbqt
DOCKED: USER    NEWDPF about 0.301000 -0.077000 0.021000
DOCKED: USER    NEWDPF tran0 13.699435 -2.416548 4.531294
DOCKED: USER    NEWDPF quaternion0 -0.295119 0.134357 -0.358597 0.875364
DOCKED: USER    NEWDPF axisangle0 -0.610424 0.277903 -0.741722 57.823947
DOCKED: USER    NEWDPF quat0 -0.610424 0.277903 -0.741722 57.823947
DOCKED: USER    NEWDPF dihe0 -44.03 -180.00 -177.22 3.60 -155.73 
DOCKED: USER  keepresnum = 1 
DOCKED: USER  
DOCKED: REMARK  5 active torsions:
DOCKED: REMARK  status: ('A' for Active; 'I' for Inactive)
DOCKED: REMARK    1  A    between atoms: O_2  and  C_13 
DOCKED: REMARK    2  A    between atoms: O_3  and  C_12 
DOCKED: REMARK    3  A    between atoms: O_5  and  C_16 
DOCKED: REMARK    4  A    between atoms: O_6  and  C_21 
DOCKED: REMARK    5  A    between atoms: C_8  and  C_11 
DOCKED: USER                              x       y       z     vdW  Elec       q    Type
DOCKED: USER                           _______ _______ _______ _____ _____    ______ ____
DOCKED: ROOT
DOCKED: ATOM      1  O   UNK     0      12.444  -0.600   5.617 -0.46 +0.06    -0.321 OA
DOCKED: ATOM      2  O   UNK     0      14.486  -3.667   3.863 -0.29 +0.06    -0.286 OA
DOCKED: ATOM      3  C   UNK     0      14.554  -1.718   5.181 -0.34 -0.03    +0.085 A 
DOCKED: ATOM      4  C   UNK     0      12.382  -2.640   4.300 -0.42 -0.01    +0.048 A 
DOCKED: ATOM      5  C   UNK     0      13.806  -0.687   5.749 -0.28 -0.03    +0.094 A 
DOCKED: ATOM      6  C   UNK     0      13.862  -2.761   4.401 -0.29 -0.06    +0.200 A 
DOCKED: ATOM      7  C   UNK     0      15.941  -1.756   5.349 -0.35 -0.03    +0.119 A 
DOCKED: ATOM      8  C   UNK     0      16.573  -0.754   6.088 -0.31 -0.04    +0.135 A 
DOCKED: ATOM      9  C   UNK     0      14.441   0.313   6.487 -0.33 -0.03    +0.077 A 
DOCKED: ATOM     10  C   UNK     0      11.809  -1.589   4.906 -0.38 -0.04    +0.159 A 
DOCKED: ATOM     11  C   UNK     0      15.825   0.277   6.656 -0.30 -0.04    +0.104 A 
DOCKED: ENDROOT
DOCKED: BRANCH   4  12
DOCKED: ATOM     12  C   UNK     0      11.567  -3.634   3.583 -0.48 +0.00    -0.020 A 
DOCKED: ATOM     13  C   UNK     0      10.672  -4.442   4.285 -0.53 -0.00    +0.015 A 
DOCKED: ATOM     14  C   UNK     0       9.898  -5.384   3.606 -0.55 -0.01    +0.037 A 
DOCKED: ATOM     15  C   UNK     0      10.020  -5.520   2.223 -0.47 -0.01    +0.068 A 
DOCKED: ATOM     16  C   UNK     0      10.914  -4.713   1.519 -0.33 -0.01    +0.037 A 
DOCKED: ATOM     17  C   UNK     0      11.687  -3.771   2.198 -0.50 -0.00    +0.015 A 
DOCKED: BRANCH  15  18
DOCKED: ATOM     18  O   UNK     0       9.266  -6.437   1.560 -0.27 +0.06    -0.356 OA
DOCKED: ATOM     19  C   UNK     0       9.155  -7.734   2.146 -0.33 -0.04    +0.210 C 
DOCKED: ENDBRANCH  15  18
DOCKED: ENDBRANCH   4  12
DOCKED: BRANCH   7  20
DOCKED: ATOM     20  O   UNK     0      16.708  -2.746   4.811 -0.67 +0.09    -0.357 OA
DOCKED: ATOM     21  H   UNK     0      17.647  -2.599   5.004 -0.41 -0.12    +0.218 HD
DOCKED: ENDBRANCH   7  20
DOCKED: BRANCH   8  22
DOCKED: ATOM     22  O   UNK     0      17.926  -0.781   6.258 -0.26 +0.10    -0.351 OA
DOCKED: ATOM     23  C   UNK     0      18.426  -1.531   7.361 -0.43 -0.06    +0.210 C 
DOCKED: ENDBRANCH   8  22
DOCKED: BRANCH  11  24
DOCKED: ATOM     24  O   UNK     0      16.434   1.258   7.379 -0.21 +0.12    -0.358 OA
DOCKED: ATOM     25  H   UNK     0      17.392   1.088   7.386 +0.04 -0.08    +0.217 HD
DOCKED: ENDBRANCH  11  24
DOCKED: TORSDOF 5
DOCKED: TER
DOCKED: ENDMDL
________________________________________________________________________________


	BEGINNING GENETIC ALGORITHM DOCKING 2 of 10
Run: 2 Seed: 165599450 1331034937 [ Run 2 of 10 GA/GALS ]
Beginning LAMARCKIAN GENETIC ALGORITHM (LGA), with a maximum of 2500000 energy evaluations.

Final-Value: -10.646


	FINAL GENETIC ALGORITHM DOCKED STATE
	_______________________________________________


Detailed state:  trans 14.488 -3.056 5.405 quatxyzw -0.206760 -0.349824 0.113368 -0.906654 center 0.301 -0.077 0.021 ntor 5 124.0940 -23.8480 11.3874 1.9288 -50.4660
State:	 14.488  -3.056   5.405  -0.490 -0.829  0.269 -49.906    124.09  -23.85   11.39    1.93  -50.47

DOCKED: MODEL        2
DOCKED: USER    Run = 2
DOCKED: USER    DPF = C:/Users/Admin/.mgltools/1.5.7/ws/dock.dpf
DOCKED: USER  
DOCKED: USER    Estimated Free Energy of Binding    =   -8.26 kcal/mol  [=(1)+(2)+(3)-(4)]
DOCKED: USER    Estimated Inhibition Constant, Ki   =  877.32 nM (nanomolar)  [Temperature = 298.15 K]
DOCKED: USER    
DOCKED: USER    (1) Final Intermolecular Energy     =   -8.74 kcal/mol
DOCKED: USER        vdW + Hbond + desolv Energy     =   -8.65 kcal/mol
DOCKED: USER        Electrostatic Energy            =   -0.09 kcal/mol
DOCKED: USER    (2) Final Total Internal Energy     =   -1.91 kcal/mol
DOCKED: USER    (3) Torsional Free Energy           =   +1.49 kcal/mol
DOCKED: USER    (4) Unbound System's Energy         =   -0.89 kcal/mol
DOCKED: USER    
DOCKED: USER    
DOCKED: USER    NEWDPF move IRI.pdbqt
DOCKED: USER    NEWDPF about 0.301000 -0.077000 0.021000
DOCKED: USER    NEWDPF tran0 14.488205 -3.056323 5.404929
DOCKED: USER    NEWDPF quaternion0 -0.206760 -0.349824 0.113368 -0.906654
DOCKED: USER    NEWDPF axisangle0 -0.490097 -0.829212 0.268724 -49.906077
DOCKED: USER    NEWDPF quat0 -0.490097 -0.829212 0.268724 -49.906077
DOCKED: USER    NEWDPF dihe0 124.09 -23.85 11.39 1.93 -50.47 
DOCKED: USER  keepresnum = 1 
DOCKED: USER  
DOCKED: REMARK  5 active torsions:
DOCKED: REMARK  status: ('A' for Active; 'I' for Inactive)
DOCKED: REMARK    1  A    between atoms: O_2  and  C_13 
DOCKED: REMARK    2  A    between atoms: O_3  and  C_12 
DOCKED: REMARK    3  A    between atoms: O_5  and  C_16 
DOCKED: REMARK    4  A    between atoms: O_6  and  C_21 
DOCKED: REMARK    5  A    between atoms: C_8  and  C_11 
DOCKED: USER                              x       y       z     vdW  Elec       q    Type
DOCKED: USER                           _______ _______ _______ _____ _____    ______ ____
DOCKED: ROOT
DOCKED: ATOM      1  O   UNK     0      14.931  -0.803   4.522 -0.22 +0.13    -0.321 OA
DOCKED: ATOM      2  O   UNK     0      14.120  -4.517   6.003 -0.30 +0.08    -0.286 OA
DOCKED: ATOM      3  C   UNK     0      15.372  -2.531   6.169 -0.36 -0.03    +0.085 A 
DOCKED: ATOM      4  C   UNK     0      13.611  -2.838   4.394 -0.40 -0.01    +0.048 A 
DOCKED: ATOM      5  C   UNK     0      15.614  -1.275   5.613 -0.35 -0.03    +0.094 A 
DOCKED: ATOM      6  C   UNK     0      14.343  -3.397   5.564 -0.28 -0.06    +0.200 A 
DOCKED: ATOM      7  C   UNK     0      16.100  -2.960   7.282 -0.31 -0.02    +0.119 A 
DOCKED: ATOM      8  C   UNK     0      17.071  -2.124   7.834 -0.36 -0.03    +0.135 A 
DOCKED: ATOM      9  C   UNK     0      16.587  -0.441   6.168 -0.33 -0.03    +0.077 A 
DOCKED: ATOM     10  C   UNK     0      13.961  -1.610   3.980 -0.31 -0.06    +0.159 A 
DOCKED: ATOM     11  C   UNK     0      17.314  -0.868   7.279 -0.40 -0.03    +0.104 A 
DOCKED: ENDROOT
DOCKED: BRANCH   4  12
DOCKED: ATOM     12  C   UNK     0      12.534  -3.582   3.721 -0.44 +0.01    -0.020 A 
DOCKED: ATOM     13  C   UNK     0      12.411  -3.532   2.332 -0.45 -0.00    +0.015 A 
DOCKED: ATOM     14  C   UNK     0      11.391  -4.238   1.693 -0.51 -0.01    +0.037 A 
DOCKED: ATOM     15  C   UNK     0      10.491  -4.995   2.445 -0.41 -0.01    +0.068 A 
DOCKED: ATOM     16  C   UNK     0      10.612  -5.046   3.834 -0.49 -0.01    +0.037 A 
DOCKED: ATOM     17  C   UNK     0      11.633  -4.340   4.471 -0.46 -0.00    +0.015 A 
DOCKED: BRANCH  15  18
DOCKED: ATOM     18  O   UNK     0       9.496  -5.683   1.824 -0.34 +0.06    -0.356 OA
DOCKED: ATOM     19  C   UNK     0       9.424  -7.087   2.072 -0.25 -0.04    +0.210 C 
DOCKED: ENDBRANCH  15  18
DOCKED: ENDBRANCH   4  12
DOCKED: BRANCH   7  20
DOCKED: ATOM     20  O   UNK     0      15.893  -4.180   7.855 -0.86 +0.01    -0.357 OA
DOCKED: ATOM     21  H   UNK     0      14.992  -4.494   7.684 +0.09 -0.03    +0.218 HD
DOCKED: ENDBRANCH   7  20
DOCKED: BRANCH   8  22
DOCKED: ATOM     22  O   UNK     0      17.788  -2.533   8.920 -0.40 +0.09    -0.351 OA
DOCKED: ATOM     23  C   UNK     0      19.110  -3.010   8.681 -0.38 -0.10    +0.210 C 
DOCKED: ENDBRANCH   8  22
DOCKED: BRANCH  11  24
DOCKED: ATOM     24  O   UNK     0      18.261  -0.045   7.812 -0.23 +0.12    -0.358 OA
DOCKED: ATOM     25  H   UNK     0      18.659  -0.489   8.581 +0.09 -0.07    +0.217 HD
DOCKED: ENDBRANCH  11  24
DOCKED: TORSDOF 5
DOCKED: TER
DOCKED: ENDMDL
________________________________________________________________________________


	BEGINNING GENETIC ALGORITHM DOCKING 3 of 10
Run: 3 Seed: 1249465113 2034380867 [ Run 3 of 10 GA/GALS ]
Beginning LAMARCKIAN GENETIC ALGORITHM (LGA), with a maximum of 2500000 energy evaluations.

Final-Value: -10.901


	FINAL GENETIC ALGORITHM DOCKED STATE
	_______________________________________________


Detailed state:  trans 14.497 -2.539 4.941 quatxyzw -0.146120 0.219256 -0.273806 0.924990 center 0.301 -0.077 0.021 ntor 5 -47.1626 54.0601 -166.1187 4.3853 177.8823
State:	 14.497  -2.539   4.941  -0.385  0.577 -0.721 44.666    -47.16   54.06 -166.12    4.39  177.88

DOCKED: MODEL        3
DOCKED: USER    Run = 3
DOCKED: USER    DPF = C:/Users/Admin/.mgltools/1.5.7/ws/dock.dpf
DOCKED: USER  
DOCKED: USER    Estimated Free Energy of Binding    =   -8.52 kcal/mol  [=(1)+(2)+(3)-(4)]
DOCKED: USER    Estimated Inhibition Constant, Ki   =  571.08 nM (nanomolar)  [Temperature = 298.15 K]
DOCKED: USER    
DOCKED: USER    (1) Final Intermolecular Energy     =   -8.97 kcal/mol
DOCKED: USER        vdW + Hbond + desolv Energy     =   -8.93 kcal/mol
DOCKED: USER        Electrostatic Energy            =   -0.05 kcal/mol
DOCKED: USER    (2) Final Total Internal Energy     =   -1.93 kcal/mol
DOCKED: USER    (3) Torsional Free Energy           =   +1.49 kcal/mol
DOCKED: USER    (4) Unbound System's Energy         =   -0.89 kcal/mol
DOCKED: USER    
DOCKED: USER    
DOCKED: USER    NEWDPF move IRI.pdbqt
DOCKED: USER    NEWDPF about 0.301000 -0.077000 0.021000
DOCKED: USER    NEWDPF tran0 14.496811 -2.538547 4.941493
DOCKED: USER    NEWDPF quaternion0 -0.146120 0.219256 -0.273806 0.924990
DOCKED: USER    NEWDPF axisangle0 -0.384535 0.577001 -0.720557 44.666436
DOCKED: USER    NEWDPF quat0 -0.384535 0.577001 -0.720557 44.666436
DOCKED: USER    NEWDPF dihe0 -47.16 54.06 -166.12 4.39 177.88 
DOCKED: USER  keepresnum = 1 
DOCKED: USER  
DOCKED: REMARK  5 active torsions:
DOCKED: REMARK  status: ('A' for Active; 'I' for Inactive)
DOCKED: REMARK    1  A    between atoms: O_2  and  C_13 
DOCKED: REMARK    2  A    between atoms: O_3  and  C_12 
DOCKED: REMARK    3  A    between atoms: O_5  and  C_16 
DOCKED: REMARK    4  A    between atoms: O_6  and  C_21 
DOCKED: REMARK    5  A    between atoms: C_8  and  C_11 
DOCKED: USER                              x       y       z     vdW  Elec       q    Type
DOCKED: USER                           _______ _______ _______ _____ _____    ______ ____
DOCKED: ROOT
DOCKED: ATOM      1  O   UNK     0      13.662  -0.268   5.392 -0.24 +0.11    -0.321 OA
DOCKED: ATOM      2  O   UNK     0      14.985  -4.064   4.690 -0.33 +0.06    -0.286 OA
DOCKED: ATOM      3  C   UNK     0      15.401  -1.945   5.628 -0.37 -0.03    +0.085 A 
DOCKED: ATOM      4  C   UNK     0      13.226  -2.474   4.473 -0.39 -0.02    +0.048 A 
DOCKED: ATOM      5  C   UNK     0      14.902  -0.659   5.829 -0.33 -0.04    +0.094 A 
DOCKED: ATOM      6  C   UNK     0      14.572  -2.933   4.913 -0.29 -0.06    +0.200 A 
DOCKED: ATOM      7  C   UNK     0      16.672  -2.287   6.096 -0.37 -0.04    +0.119 A 
DOCKED: ATOM      8  C   UNK     0      17.439  -1.333   6.766 -0.40 -0.04    +0.135 A 
DOCKED: ATOM      9  C   UNK     0      15.671   0.293   6.500 -0.33 -0.03    +0.077 A 
DOCKED: ATOM     10  C   UNK     0      12.891  -1.203   4.746 -0.31 -0.05    +0.159 A 
DOCKED: ATOM     11  C   UNK     0      16.940  -0.047   6.968 -0.36 -0.03    +0.104 A 
DOCKED: ENDROOT
DOCKED: BRANCH   4  12
DOCKED: ATOM     12  C   UNK     0      12.284  -3.371   3.783 -0.47 +0.01    -0.020 A 
DOCKED: ATOM     13  C   UNK     0      11.418  -4.178   4.522 -0.49 -0.00    +0.015 A 
DOCKED: ATOM     14  C   UNK     0      10.524  -5.027   3.869 -0.51 -0.01    +0.037 A 
DOCKED: ATOM     15  C   UNK     0      10.496  -5.070   2.474 -0.42 -0.01    +0.068 A 
DOCKED: ATOM     16  C   UNK     0      11.362  -4.264   1.734 -0.50 -0.01    +0.037 A 
DOCKED: ATOM     17  C   UNK     0      12.255  -3.415   2.388 -0.52 -0.00    +0.015 A 
DOCKED: BRANCH  15  18
DOCKED: ATOM     18  O   UNK     0       9.625  -5.898   1.836 -0.38 +0.06    -0.356 OA
DOCKED: ATOM     19  C   UNK     0       9.548  -7.244   2.303 -0.31 -0.04    +0.210 C 
DOCKED: ENDBRANCH  15  18
DOCKED: ENDBRANCH   4  12
DOCKED: BRANCH   7  20
DOCKED: ATOM     20  O   UNK     0      17.197  -3.533   5.920 -0.22 +0.14    -0.357 OA
DOCKED: ATOM     21  H   UNK     0      17.155  -3.797   4.989 -0.40 -0.09    +0.218 HD
DOCKED: ENDBRANCH   7  20
DOCKED: BRANCH   8  22
DOCKED: ATOM     22  O   UNK     0      18.683  -1.657   7.227 -0.32 +0.11    -0.351 OA
DOCKED: ATOM     23  C   UNK     0      18.749  -2.450   8.409 -0.46 -0.08    +0.210 C 
DOCKED: ENDBRANCH   8  22
DOCKED: BRANCH  11  24
DOCKED: ATOM     24  O   UNK     0      17.683   0.890   7.622 -0.19 +0.13    -0.358 OA
DOCKED: ATOM     25  H   UNK     0      18.542   0.498   7.854 -0.01 -0.08    +0.217 HD
DOCKED: ENDBRANCH  11  24
DOCKED: TORSDOF 5
DOCKED: TER
DOCKED: ENDMDL
________________________________________________________________________________


	BEGINNING GENETIC ALGORITHM DOCKING 4 of 10
Run: 4 Seed: 1175618504 1454484740 [ Run 4 of 10 GA/GALS ]
Beginning LAMARCKIAN GENETIC ALGORITHM (LGA), with a maximum of 2500000 energy evaluations.

Final-Value: -10.367


	FINAL GENETIC ALGORITHM DOCKED STATE
	_______________________________________________


Detailed state:  trans 15.670 -1.324 6.381 quatxyzw -0.919188 0.184729 -0.308504 -0.160603 center 0.301 -0.077 0.021 ntor 5 170.1168 -45.8638 -1.6458 -0.1828 -42.1720
State:	 15.670  -1.324   6.381  -0.931  0.187 -0.313 -161.516    170.12  -45.86   -1.65   -0.18  -42.17

DOCKED: MODEL        4
DOCKED: USER    Run = 4
DOCKED: USER    DPF = C:/Users/Admin/.mgltools/1.5.7/ws/dock.dpf
DOCKED: USER  
DOCKED: USER    Estimated Free Energy of Binding    =   -7.98 kcal/mol  [=(1)+(2)+(3)-(4)]
DOCKED: USER    Estimated Inhibition Constant, Ki   =    1.41 uM (micromolar)  [Temperature = 298.15 K]
DOCKED: USER    
DOCKED: USER    (1) Final Intermolecular Energy     =   -8.44 kcal/mol
DOCKED: USER        vdW + Hbond + desolv Energy     =   -8.36 kcal/mol
DOCKED: USER        Electrostatic Energy            =   -0.08 kcal/mol
DOCKED: USER    (2) Final Total Internal Energy     =   -1.92 kcal/mol
DOCKED: USER    (3) Torsional Free Energy           =   +1.49 kcal/mol
DOCKED: USER    (4) Unbound System's Energy         =   -0.89 kcal/mol
DOCKED: USER    
DOCKED: USER    
DOCKED: USER    NEWDPF move IRI.pdbqt
DOCKED: USER    NEWDPF about 0.301000 -0.077000 0.021000
DOCKED: USER    NEWDPF tran0 15.669951 -1.324157 6.381027
DOCKED: USER    NEWDPF quaternion0 -0.919188 0.184729 -0.308504 -0.160603
DOCKED: USER    NEWDPF axisangle0 -0.931277 0.187158 -0.312562 -161.516216
DOCKED: USER    NEWDPF quat0 -0.931277 0.187158 -0.312562 -161.516216
DOCKED: USER    NEWDPF dihe0 170.12 -45.86 -1.65 -0.18 -42.17 
DOCKED: USER  keepresnum = 1 
DOCKED: USER  
DOCKED: REMARK  5 active torsions:
DOCKED: REMARK  status: ('A' for Active; 'I' for Inactive)
DOCKED: REMARK    1  A    between atoms: O_2  and  C_13 
DOCKED: REMARK    2  A    between atoms: O_3  and  C_12 
DOCKED: REMARK    3  A    between atoms: O_5  and  C_16 
DOCKED: REMARK    4  A    between atoms: O_6  and  C_21 
DOCKED: REMARK    5  A    between atoms: C_8  and  C_11 
DOCKED: USER                              x       y       z     vdW  Elec       q    Type
DOCKED: USER                           _______ _______ _______ _____ _____    ______ ____
DOCKED: ROOT
DOCKED: ATOM      1  O   UNK     0      15.396  -3.718   5.882 -0.26 +0.09    -0.321 OA
DOCKED: ATOM      2  O   UNK     0      15.862   0.266   6.630 -0.27 +0.10    -0.286 OA
DOCKED: ATOM      3  C   UNK     0      16.642  -1.931   6.954 -0.42 -0.02    +0.085 A 
DOCKED: ATOM      4  C   UNK     0      14.633  -1.442   5.516 -0.36 -0.02    +0.048 A 
DOCKED: ATOM      5  C   UNK     0      16.428  -3.280   6.673 -0.42 -0.02    +0.094 A 
DOCKED: ATOM      6  C   UNK     0      15.726  -0.925   6.384 -0.29 -0.07    +0.200 A 
DOCKED: ATOM      7  C   UNK     0      17.710  -1.543   7.767 -0.42 -0.03    +0.119 A 
DOCKED: ATOM      8  C   UNK     0      18.561  -2.514   8.297 -0.47 -0.05    +0.135 A 
DOCKED: ATOM      9  C   UNK     0      17.280  -4.249   7.205 -0.43 -0.02    +0.077 A 
DOCKED: ATOM     10  C   UNK     0      14.563  -2.770   5.340 -0.30 -0.05    +0.159 A 
DOCKED: ATOM     11  C   UNK     0      18.347  -3.863   8.016 -0.48 -0.04    +0.104 A 
DOCKED: ENDROOT
DOCKED: BRANCH   4  12
DOCKED: ATOM     12  C   UNK     0      13.673  -0.542   4.854 -0.37 +0.01    -0.020 A 
DOCKED: ATOM     13  C   UNK     0      12.306  -0.818   4.904 -0.43 -0.00    +0.015 A 
DOCKED: ATOM     14  C   UNK     0      11.396   0.034   4.279 -0.27 -0.01    +0.037 A 
DOCKED: ATOM     15  C   UNK     0      11.853   1.165   3.600 -0.27 -0.02    +0.068 A 
DOCKED: ATOM     16  C   UNK     0      13.219   1.442   3.549 -0.27 -0.02    +0.037 A 
DOCKED: ATOM     17  C   UNK     0      14.128   0.590   4.175 -0.28 -0.01    +0.015 A 
DOCKED: BRANCH  15  18
DOCKED: ATOM     18  O   UNK     0      10.967   1.997   2.990 -0.63 +0.09    -0.356 OA
DOCKED: ATOM     19  C   UNK     0      11.471   3.240   2.504 -0.29 -0.10    +0.210 C 
DOCKED: ENDBRANCH  15  18
DOCKED: ENDBRANCH   4  12
DOCKED: BRANCH   7  20
DOCKED: ATOM     20  O   UNK     0      17.954  -0.235   8.065 -0.21 +0.11    -0.357 OA
DOCKED: ATOM     21  H   UNK     0      17.927   0.312   7.266 +0.03 -0.08    +0.218 HD
DOCKED: ENDBRANCH   7  20
DOCKED: BRANCH   8  22
DOCKED: ATOM     22  O   UNK     0      19.606  -2.146   9.093 -0.27 +0.17    -0.351 OA
DOCKED: ATOM     23  C   UNK     0      19.346  -2.030  10.489 -0.41 -0.11    +0.210 C 
DOCKED: ENDBRANCH   8  22
DOCKED: BRANCH  11  24
DOCKED: ATOM     24  O   UNK     0      19.173  -4.818   8.530 -0.32 +0.18    -0.358 OA
DOCKED: ATOM     25  H   UNK     0      19.883  -4.377   9.028 -0.26 -0.17    +0.217 HD
DOCKED: ENDBRANCH  11  24
DOCKED: TORSDOF 5
DOCKED: TER
DOCKED: ENDMDL
________________________________________________________________________________


	BEGINNING GENETIC ALGORITHM DOCKING 5 of 10
Run: 5 Seed: 1650485489 1404199890 [ Run 5 of 10 GA/GALS ]
Beginning LAMARCKIAN GENETIC ALGORITHM (LGA), with a maximum of 2500000 energy evaluations.

Final-Value: -10.794


	FINAL GENETIC ALGORITHM DOCKED STATE
	_______________________________________________


Detailed state:  trans 16.207 -3.162 5.758 quatxyzw -0.525551 0.322131 0.230789 0.752837 center 0.301 -0.077 0.021 ntor 5 -137.4058 53.9304 -34.5106 -21.9220 123.5164
State:	 16.207  -3.162   5.758  -0.798  0.489  0.351 82.326   -137.41   53.93  -34.51  -21.92  123.52

DOCKED: MODEL        5
DOCKED: USER    Run = 5
DOCKED: USER    DPF = C:/Users/Admin/.mgltools/1.5.7/ws/dock.dpf
DOCKED: USER  
DOCKED: USER    Estimated Free Energy of Binding    =   -8.41 kcal/mol  [=(1)+(2)+(3)-(4)]
DOCKED: USER    Estimated Inhibition Constant, Ki   =  683.94 nM (nanomolar)  [Temperature = 298.15 K]
DOCKED: USER    
DOCKED: USER    (1) Final Intermolecular Energy     =   -9.09 kcal/mol
DOCKED: USER        vdW + Hbond + desolv Energy     =   -8.96 kcal/mol
DOCKED: USER        Electrostatic Energy            =   -0.13 kcal/mol
DOCKED: USER    (2) Final Total Internal Energy     =   -1.70 kcal/mol
DOCKED: USER    (3) Torsional Free Energy           =   +1.49 kcal/mol
DOCKED: USER    (4) Unbound System's Energy         =   -0.89 kcal/mol
DOCKED: USER    
DOCKED: USER    
DOCKED: USER    NEWDPF move IRI.pdbqt
DOCKED: USER    NEWDPF about 0.301000 -0.077000 0.021000
DOCKED: USER    NEWDPF tran0 16.206982 -3.162164 5.758208
DOCKED: USER    NEWDPF quaternion0 -0.525551 0.322131 0.230789 0.752837
DOCKED: USER    NEWDPF axisangle0 -0.798459 0.489406 0.350634 82.326463
DOCKED: USER    NEWDPF quat0 -0.798459 0.489406 0.350634 82.326463
DOCKED: USER    NEWDPF dihe0 -137.41 53.93 -34.51 -21.92 123.52 
DOCKED: USER  keepresnum = 1 
DOCKED: USER  
DOCKED: REMARK  5 active torsions:
DOCKED: REMARK  status: ('A' for Active; 'I' for Inactive)
DOCKED: REMARK    1  A    between atoms: O_2  and  C_13 
DOCKED: REMARK    2  A    between atoms: O_3  and  C_12 
DOCKED: REMARK    3  A    between atoms: O_5  and  C_16 
DOCKED: REMARK    4  A    between atoms: O_6  and  C_21 
DOCKED: REMARK    5  A    between atoms: C_8  and  C_11 
DOCKED: USER                              x       y       z     vdW  Elec       q    Type
DOCKED: USER                           _______ _______ _______ _____ _____    ______ ____
DOCKED: ROOT
DOCKED: ATOM      1  O   UNK     0      16.801  -2.613   8.082 -0.67 +0.03    -0.321 OA
DOCKED: ATOM      2  O   UNK     0      15.739  -3.537   4.252 -0.83 +0.04    -0.286 OA
DOCKED: ATOM      3  C   UNK     0      17.037  -4.058   6.146 -0.36 -0.03    +0.085 A 
DOCKED: ATOM      4  C   UNK     0      15.431  -2.118   6.139 -0.39 -0.02    +0.048 A 
DOCKED: ATOM      5  C   UNK     0      17.369  -3.689   7.449 -0.45 -0.02    +0.094 A 
DOCKED: ATOM      6  C   UNK     0      16.037  -3.264   5.407 -0.32 -0.05    +0.200 A 
DOCKED: ATOM      7  C   UNK     0      17.648  -5.164   5.551 -0.21 -0.04    +0.119 A 
DOCKED: ATOM      8  C   UNK     0      18.595  -5.897   6.268 -0.28 -0.04    +0.135 A 
DOCKED: ATOM      9  C   UNK     0      18.315  -4.424   8.164 -0.49 -0.03    +0.077 A 
DOCKED: ATOM     10  C   UNK     0      15.856  -1.894   7.392 -0.14 -0.04    +0.159 A 
DOCKED: ATOM     11  C   UNK     0      18.927  -5.529   7.572 -0.41 -0.04    +0.104 A 
DOCKED: ENDROOT
DOCKED: BRANCH   4  12
DOCKED: ATOM     12  C   UNK     0      14.393  -1.268   5.532 -0.37 +0.01    -0.020 A 
DOCKED: ATOM     13  C   UNK     0      13.480  -1.814   4.629 -0.39 -0.01    +0.015 A 
DOCKED: ATOM     14  C   UNK     0      12.496  -1.009   4.054 -0.41 -0.01    +0.037 A 
DOCKED: ATOM     15  C   UNK     0      12.425   0.345   4.382 -0.36 -0.02    +0.068 A 
DOCKED: ATOM     16  C   UNK     0      13.336   0.894   5.284 -0.30 -0.01    +0.037 A 
DOCKED: ATOM     17  C   UNK     0      14.319   0.088   5.859 -0.37 -0.01    +0.015 A 
DOCKED: BRANCH  15  18
DOCKED: ATOM     18  O   UNK     0      11.466   1.131   3.822 -0.82 +0.07    -0.356 OA
DOCKED: ATOM     19  C   UNK     0      11.864   2.429   3.381 -0.29 -0.09    +0.210 C 
DOCKED: ENDBRANCH  15  18
DOCKED: ENDBRANCH   4  12
DOCKED: BRANCH   7  20
DOCKED: ATOM     20  O   UNK     0      17.352  -5.559   4.280 -0.33 +0.11    -0.357 OA
DOCKED: ATOM     21  H   UNK     0      17.434  -4.818   3.660 -0.20 -0.06    +0.218 HD
DOCKED: ENDBRANCH   7  20
DOCKED: BRANCH   8  22
DOCKED: ATOM     22  O   UNK     0      19.199  -6.979   5.697 -0.19 +0.10    -0.351 OA
DOCKED: ATOM     23  C   UNK     0      19.864  -6.767   4.455 -0.23 -0.05    +0.210 C 
DOCKED: ENDBRANCH   8  22
DOCKED: BRANCH  11  24
DOCKED: ATOM     24  O   UNK     0      19.850  -6.239   8.279 -0.25 +0.17    -0.358 OA
DOCKED: ATOM     25  H   UNK     0      19.883  -7.144   7.924 +0.10 -0.09    +0.217 HD
DOCKED: ENDBRANCH  11  24
DOCKED: TORSDOF 5
DOCKED: TER
DOCKED: ENDMDL
________________________________________________________________________________


	BEGINNING GENETIC ALGORITHM DOCKING 6 of 10
Run: 6 Seed: 2036783135 961902723 [ Run 6 of 10 GA/GALS ]
Beginning LAMARCKIAN GENETIC ALGORITHM (LGA), with a maximum of 2500000 energy evaluations.

Final-Value: -11.264


	FINAL GENETIC ALGORITHM DOCKED STATE
	_______________________________________________


Detailed state:  trans 13.802 -2.436 4.560 quatxyzw 0.244150 -0.153003 0.332266 -0.898098 center 0.301 -0.077 0.021 ntor 5 -59.5551 180.0000 -174.3472 13.2879 -157.0605
State:	 13.802  -2.436   4.560   0.555 -0.348  0.756 -52.182    -59.56  180.00 -174.35   13.29 -157.06

DOCKED: MODEL        6
DOCKED: USER    Run = 6
DOCKED: USER    DPF = C:/Users/Admin/.mgltools/1.5.7/ws/dock.dpf
DOCKED: USER  
DOCKED: USER    Estimated Free Energy of Binding    =   -8.88 kcal/mol  [=(1)+(2)+(3)-(4)]
DOCKED: USER    Estimated Inhibition Constant, Ki   =  309.37 nM (nanomolar)  [Temperature = 298.15 K]
DOCKED: USER    
DOCKED: USER    (1) Final Intermolecular Energy     =   -9.35 kcal/mol
DOCKED: USER        vdW + Hbond + desolv Energy     =   -9.20 kcal/mol
DOCKED: USER        Electrostatic Energy            =   -0.15 kcal/mol
DOCKED: USER    (2) Final Total Internal Energy     =   -1.91 kcal/mol
DOCKED: USER    (3) Torsional Free Energy           =   +1.49 kcal/mol
DOCKED: USER    (4) Unbound System's Energy         =   -0.89 kcal/mol
DOCKED: USER    
DOCKED: USER    
DOCKED: USER    NEWDPF move IRI.pdbqt
DOCKED: USER    NEWDPF about 0.301000 -0.077000 0.021000
DOCKED: USER    NEWDPF tran0 13.802500 -2.435598 4.559746
DOCKED: USER    NEWDPF quaternion0 0.244150 -0.153003 0.332266 -0.898098
DOCKED: USER    NEWDPF axisangle0 0.555144 -0.347897 0.755502 -52.181607
DOCKED: USER    NEWDPF quat0 0.555144 -0.347897 0.755502 -52.181607
DOCKED: USER    NEWDPF dihe0 -59.56 180.00 -174.35 13.29 -157.06 
DOCKED: USER  keepresnum = 1 
DOCKED: USER  
DOCKED: REMARK  5 active torsions:
DOCKED: REMARK  status: ('A' for Active; 'I' for Inactive)
DOCKED: REMARK    1  A    between atoms: O_2  and  C_13 
DOCKED: REMARK    2  A    between atoms: O_3  and  C_12 
DOCKED: REMARK    3  A    between atoms: O_5  and  C_16 
DOCKED: REMARK    4  A    between atoms: O_6  and  C_21 
DOCKED: REMARK    5  A    between atoms: C_8  and  C_11 
DOCKED: USER                              x       y       z     vdW  Elec       q    Type
DOCKED: USER                           _______ _______ _______ _____ _____    ______ ____
DOCKED: ROOT
DOCKED: ATOM      1  O   UNK     0      12.667  -0.434   5.431 -0.40 +0.08    -0.321 OA
DOCKED: ATOM      2  O   UNK     0      14.503  -3.800   4.034 -0.28 +0.06    -0.286 OA
DOCKED: ATOM      3  C   UNK     0      14.687  -1.760   5.195 -0.34 -0.03    +0.085 A 
DOCKED: ATOM      4  C   UNK     0      12.482  -2.565   4.280 -0.42 -0.01    +0.048 A 
DOCKED: ATOM      5  C   UNK     0      14.009  -0.625   5.639 -0.32 -0.03    +0.094 A 
DOCKED: ATOM      6  C   UNK     0      13.940  -2.803   4.466 -0.29 -0.06    +0.200 A 
DOCKED: ATOM      7  C   UNK     0      16.055  -1.901   5.436 -0.36 -0.03    +0.119 A 
DOCKED: ATOM      8  C   UNK     0      16.741  -0.899   6.124 -0.32 -0.04    +0.135 A 
DOCKED: ATOM      9  C   UNK     0      14.697   0.376   6.327 -0.33 -0.03    +0.077 A 
DOCKED: ATOM     10  C   UNK     0      11.978  -1.422   4.770 -0.37 -0.04    +0.159 A 
DOCKED: ATOM     11  C   UNK     0      16.063   0.237   6.568 -0.32 -0.04    +0.104 A 
DOCKED: ENDROOT
DOCKED: BRANCH   4  12
DOCKED: ATOM     12  C   UNK     0      11.614  -3.543   3.604 -0.47 +0.01    -0.020 A 
DOCKED: ATOM     13  C   UNK     0      10.639  -4.231   4.328 -0.54 -0.00    +0.015 A 
DOCKED: ATOM     14  C   UNK     0       9.815  -5.157   3.688 -0.57 -0.01    +0.037 A 
DOCKED: ATOM     15  C   UNK     0       9.966  -5.398   2.322 -0.48 -0.01    +0.068 A 
DOCKED: ATOM     16  C   UNK     0      10.941  -4.712   1.597 -0.40 -0.01    +0.037 A 
DOCKED: ATOM     17  C   UNK     0      11.763  -3.785   2.237 -0.53 -0.00    +0.015 A 
DOCKED: BRANCH  15  18
DOCKED: ATOM     18  O   UNK     0       9.163  -6.301   1.697 -0.23 +0.06    -0.356 OA
DOCKED: ATOM     19  C   UNK     0       9.202  -7.645   2.175 -0.31 -0.04    +0.210 C 
DOCKED: ENDBRANCH  15  18
DOCKED: ENDBRANCH   4  12
DOCKED: BRANCH   7  20
DOCKED: ATOM     20  O   UNK     0      16.755  -2.994   5.018 -0.57 +0.10    -0.357 OA
DOCKED: ATOM     21  H   UNK     0      17.693  -2.912   5.247 -0.40 -0.14    +0.218 HD
DOCKED: ENDBRANCH   7  20
DOCKED: BRANCH   8  22
DOCKED: ATOM     22  O   UNK     0      18.078  -1.025   6.363 -0.30 +0.10    -0.351 OA
DOCKED: ATOM     23  C   UNK     0      18.461  -1.774   7.514 -0.44 -0.06    +0.210 C 
DOCKED: ENDBRANCH   8  22
DOCKED: BRANCH  11  24
DOCKED: ATOM     24  O   UNK     0      16.725   1.220   7.241 -0.23 +0.13    -0.358 OA
DOCKED: ATOM     25  H   UNK     0      17.681   1.050   7.177 +0.01 -0.09    +0.217 HD
DOCKED: ENDBRANCH  11  24
DOCKED: TORSDOF 5
DOCKED: TER
DOCKED: ENDMDL
________________________________________________________________________________


	BEGINNING GENETIC ALGORITHM DOCKING 7 of 10
Run: 7 Seed: 1023829142 1323575141 [ Run 7 of 10 GA/GALS ]
Beginning LAMARCKIAN GENETIC ALGORITHM (LGA), with a maximum of 2500000 energy evaluations.

Final-Value: -10.561


	FINAL GENETIC ALGORITHM DOCKED STATE
	_______________________________________________


Detailed state:  trans 14.462 -2.208 5.910 quatxyzw 0.924300 0.244345 0.244383 -0.161994 center 0.301 -0.077 0.021 ntor 5 66.0243 -163.3501 -26.8854 3.5360 140.0812
State:	 14.462  -2.208   5.910   0.937  0.248  0.248 -161.355     66.02 -163.35  -26.89    3.54  140.08

DOCKED: MODEL        7
DOCKED: USER    Run = 7
DOCKED: USER    DPF = C:/Users/Admin/.mgltools/1.5.7/ws/dock.dpf
DOCKED: USER  
DOCKED: USER    Estimated Free Energy of Binding    =   -8.18 kcal/mol  [=(1)+(2)+(3)-(4)]
DOCKED: USER    Estimated Inhibition Constant, Ki   =    1.01 uM (micromolar)  [Temperature = 298.15 K]
DOCKED: USER    
DOCKED: USER    (1) Final Intermolecular Energy     =   -8.73 kcal/mol
DOCKED: USER        vdW + Hbond + desolv Energy     =   -8.66 kcal/mol
DOCKED: USER        Electrostatic Energy            =   -0.07 kcal/mol
DOCKED: USER    (2) Final Total Internal Energy     =   -1.83 kcal/mol
DOCKED: USER    (3) Torsional Free Energy           =   +1.49 kcal/mol
DOCKED: USER    (4) Unbound System's Energy         =   -0.89 kcal/mol
DOCKED: USER    
DOCKED: USER    
DOCKED: USER    NEWDPF move IRI.pdbqt
DOCKED: USER    NEWDPF about 0.301000 -0.077000 0.021000
DOCKED: USER    NEWDPF tran0 14.461520 -2.208275 5.910295
DOCKED: USER    NEWDPF quaternion0 0.924300 0.244345 0.244383 -0.161994
DOCKED: USER    NEWDPF axisangle0 0.936672 0.247616 0.247654 -161.354675
DOCKED: USER    NEWDPF quat0 0.936672 0.247616 0.247654 -161.354675
DOCKED: USER    NEWDPF dihe0 66.02 -163.35 -26.89 3.54 140.08 
DOCKED: USER  keepresnum = 1 
DOCKED: USER  
DOCKED: REMARK  5 active torsions:
DOCKED: REMARK  status: ('A' for Active; 'I' for Inactive)
DOCKED: REMARK    1  A    between atoms: O_2  and  C_13 
DOCKED: REMARK    2  A    between atoms: O_3  and  C_12 
DOCKED: REMARK    3  A    between atoms: O_5  and  C_16 
DOCKED: REMARK    4  A    between atoms: O_6  and  C_21 
DOCKED: REMARK    5  A    between atoms: C_8  and  C_11 
DOCKED: USER                              x       y       z     vdW  Elec       q    Type
DOCKED: USER                           _______ _______ _______ _____ _____    ______ ____
DOCKED: ROOT
DOCKED: ATOM      1  O   UNK     0      15.679  -3.820   7.315 -0.83 +0.05    -0.321 OA
DOCKED: ATOM      2  O   UNK     0      13.675  -1.194   4.920 -0.23 +0.10    -0.286 OA
DOCKED: ATOM      3  C   UNK     0      15.493  -1.596   6.360 -0.35 -0.03    +0.085 A 
DOCKED: ATOM      4  C   UNK     0      13.836  -3.405   5.788 -0.27 -0.02    +0.048 A 
DOCKED: ATOM      5  C   UNK     0      16.130  -2.534   7.173 -0.35 -0.02    +0.094 A 
DOCKED: ATOM      6  C   UNK     0      14.280  -1.994   5.621 -0.19 -0.08    +0.200 A 
DOCKED: ATOM      7  C   UNK     0      15.999  -0.298   6.254 -0.32 -0.04    +0.119 A 
DOCKED: ATOM      8  C   UNK     0      17.146   0.055   6.966 -0.34 -0.05    +0.135 A 
DOCKED: ATOM      9  C   UNK     0      17.277  -2.177   7.885 -0.44 -0.02    +0.077 A 
DOCKED: ATOM     10  C   UNK     0      14.561  -4.185   6.605 -0.31 -0.05    +0.159 A 
DOCKED: ATOM     11  C   UNK     0      17.783  -0.882   7.780 -0.39 -0.03    +0.104 A 
DOCKED: ENDROOT
DOCKED: BRANCH   4  12
DOCKED: ATOM     12  C   UNK     0      12.664  -3.942   5.077 -0.43 +0.01    -0.020 A 
DOCKED: ATOM     13  C   UNK     0      12.529  -3.746   3.702 -0.42 -0.00    +0.015 A 
DOCKED: ATOM     14  C   UNK     0      11.419  -4.255   3.028 -0.45 -0.01    +0.037 A 
DOCKED: ATOM     15  C   UNK     0      10.441  -4.961   3.729 -0.49 -0.02    +0.068 A 
DOCKED: ATOM     16  C   UNK     0      10.574  -5.158   5.104 -0.43 -0.01    +0.037 A 
DOCKED: ATOM     17  C   UNK     0      11.684  -4.650   5.777 -0.52 -0.00    +0.015 A 
DOCKED: BRANCH  15  18
DOCKED: ATOM     18  O   UNK     0       9.358  -5.459   3.073 -0.34 +0.07    -0.356 OA
DOCKED: ATOM     19  C   UNK     0       9.595  -6.493   2.118 -0.37 -0.04    +0.210 C 
DOCKED: ENDBRANCH  15  18
DOCKED: ENDBRANCH   4  12
DOCKED: BRANCH   7  20
DOCKED: ATOM     20  O   UNK     0      15.406   0.647   5.470 -0.10 +0.19    -0.357 OA
DOCKED: ATOM     21  H   UNK     0      16.000   1.400   5.328 -0.39 -0.18    +0.218 HD
DOCKED: ENDBRANCH   7  20
DOCKED: BRANCH   8  22
DOCKED: ATOM     22  O   UNK     0      17.647   1.320   6.871 -0.22 +0.15    -0.351 OA
DOCKED: ATOM     23  C   UNK     0      16.819   2.382   7.337 -0.23 -0.08    +0.210 C 
DOCKED: ENDBRANCH   8  22
DOCKED: BRANCH  11  24
DOCKED: ATOM     24  O   UNK     0      18.903  -0.545   8.479 -0.25 +0.11    -0.358 OA
DOCKED: ATOM     25  H   UNK     0      19.109   0.389   8.302 -0.00 -0.08    +0.217 HD
DOCKED: ENDBRANCH  11  24
DOCKED: TORSDOF 5
DOCKED: TER
DOCKED: ENDMDL
________________________________________________________________________________


	BEGINNING GENETIC ALGORITHM DOCKING 8 of 10
Run: 8 Seed: 1611420660 1193801237 [ Run 8 of 10 GA/GALS ]
Beginning LAMARCKIAN GENETIC ALGORITHM (LGA), with a maximum of 2500000 energy evaluations.

Final-Value: -11.204


	FINAL GENETIC ALGORITHM DOCKED STATE
	_______________________________________________


Detailed state:  trans 13.787 -2.477 4.600 quatxyzw -0.252968 0.150059 -0.344213 0.891631 center 0.301 -0.077 0.021 ntor 5 -44.0619 177.1713 -172.0788 5.5196 -162.8040
State:	 13.787  -2.477   4.600  -0.559  0.331 -0.760 53.842    -44.06  177.17 -172.08    5.52 -162.80

DOCKED: MODEL        8
DOCKED: USER    Run = 8
DOCKED: USER    DPF = C:/Users/Admin/.mgltools/1.5.7/ws/dock.dpf
DOCKED: USER  
DOCKED: USER    Estimated Free Energy of Binding    =   -8.82 kcal/mol  [=(1)+(2)+(3)-(4)]
DOCKED: USER    Estimated Inhibition Constant, Ki   =  342.56 nM (nanomolar)  [Temperature = 298.15 K]
DOCKED: USER    
DOCKED: USER    (1) Final Intermolecular Energy     =   -9.28 kcal/mol
DOCKED: USER        vdW + Hbond + desolv Energy     =   -9.14 kcal/mol
DOCKED: USER        Electrostatic Energy            =   -0.15 kcal/mol
DOCKED: USER    (2) Final Total Internal Energy     =   -1.92 kcal/mol
DOCKED: USER    (3) Torsional Free Energy           =   +1.49 kcal/mol
DOCKED: USER    (4) Unbound System's Energy         =   -0.89 kcal/mol
DOCKED: USER    
DOCKED: USER    
DOCKED: USER    NEWDPF move IRI.pdbqt
DOCKED: USER    NEWDPF about 0.301000 -0.077000 0.021000
DOCKED: USER    NEWDPF tran0 13.787296 -2.477261 4.599528
DOCKED: USER    NEWDPF quaternion0 -0.252968 0.150059 -0.344213 0.891631
DOCKED: USER    NEWDPF axisangle0 -0.558722 0.331430 -0.760252 53.842067
DOCKED: USER    NEWDPF quat0 -0.558722 0.331430 -0.760252 53.842067
DOCKED: USER    NEWDPF dihe0 -44.06 177.17 -172.08 5.52 -162.80 
DOCKED: USER  keepresnum = 1 
DOCKED: USER  
DOCKED: REMARK  5 active torsions:
DOCKED: REMARK  status: ('A' for Active; 'I' for Inactive)
DOCKED: REMARK    1  A    between atoms: O_2  and  C_13 
DOCKED: REMARK    2  A    between atoms: O_3  and  C_12 
DOCKED: REMARK    3  A    between atoms: O_5  and  C_16 
DOCKED: REMARK    4  A    between atoms: O_6  and  C_21 
DOCKED: REMARK    5  A    between atoms: C_8  and  C_11 
DOCKED: USER                              x       y       z     vdW  Elec       q    Type
DOCKED: USER                           _______ _______ _______ _____ _____    ______ ____
DOCKED: ROOT
DOCKED: ATOM      1  O   UNK     0      12.595  -0.522   5.501 -0.44 +0.07    -0.321 OA
DOCKED: ATOM      2  O   UNK     0      14.526  -3.813   4.054 -0.28 +0.06    -0.286 OA
DOCKED: ATOM      3  C   UNK     0      14.653  -1.784   5.241 -0.34 -0.03    +0.085 A 
DOCKED: ATOM      4  C   UNK     0      12.470  -2.642   4.322 -0.42 -0.01    +0.048 A 
DOCKED: ATOM      5  C   UNK     0      13.943  -0.676   5.703 -0.30 -0.03    +0.094 A 
DOCKED: ATOM      6  C   UNK     0      13.935  -2.839   4.501 -0.29 -0.06    +0.200 A 
DOCKED: ATOM      7  C   UNK     0      16.026  -1.887   5.475 -0.36 -0.03    +0.119 A 
DOCKED: ATOM      8  C   UNK     0      16.684  -0.874   6.175 -0.33 -0.04    +0.135 A 
DOCKED: ATOM      9  C   UNK     0      14.604   0.336   6.401 -0.33 -0.03    +0.077 A 
DOCKED: ATOM     10  C   UNK     0      11.934  -1.521   4.829 -0.37 -0.04    +0.159 A 
DOCKED: ATOM     11  C   UNK     0      15.975   0.234   6.637 -0.31 -0.04    +0.104 A 
DOCKED: ENDROOT
DOCKED: BRANCH   4  12
DOCKED: ATOM     12  C   UNK     0      11.629  -3.637   3.636 -0.47 +0.01    -0.020 A 
DOCKED: ATOM     13  C   UNK     0      10.763  -4.447   4.371 -0.52 -0.00    +0.015 A 
DOCKED: ATOM     14  C   UNK     0       9.965  -5.389   3.722 -0.54 -0.01    +0.037 A 
DOCKED: ATOM     15  C   UNK     0      10.033  -5.523   2.334 -0.48 -0.01    +0.068 A 
DOCKED: ATOM     16  C   UNK     0      10.899  -4.714   1.598 -0.38 -0.01    +0.037 A 
DOCKED: ATOM     17  C   UNK     0      11.696  -3.772   2.248 -0.51 -0.00    +0.015 A 
DOCKED: BRANCH  15  18
DOCKED: ATOM     18  O   UNK     0       9.255  -6.441   1.700 -0.28 +0.06    -0.356 OA
DOCKED: ATOM     19  C   UNK     0       9.170  -7.738   2.288 -0.32 -0.04    +0.210 C 
DOCKED: ENDBRANCH  15  18
DOCKED: ENDBRANCH   4  12
DOCKED: BRANCH   7  20
DOCKED: ATOM     20  O   UNK     0      16.757  -2.954   5.041 -0.55 +0.10    -0.357 OA
DOCKED: ATOM     21  H   UNK     0      17.699  -2.826   5.228 -0.39 -0.13    +0.218 HD
DOCKED: ENDBRANCH   7  20
DOCKED: BRANCH   8  22
DOCKED: ATOM     22  O   UNK     0      18.025  -0.964   6.409 -0.30 +0.10    -0.351 OA
DOCKED: ATOM     23  C   UNK     0      18.437  -1.757   7.518 -0.44 -0.06    +0.210 C 
DOCKED: ENDBRANCH   8  22
DOCKED: BRANCH  11  24
DOCKED: ATOM     24  O   UNK     0      16.609   1.228   7.320 -0.22 +0.13    -0.358 OA
DOCKED: ATOM     25  H   UNK     0      17.559   1.021   7.356 +0.03 -0.08    +0.217 HD
DOCKED: ENDBRANCH  11  24
DOCKED: TORSDOF 5
DOCKED: TER
DOCKED: ENDMDL
________________________________________________________________________________


	BEGINNING GENETIC ALGORITHM DOCKING 9 of 10
Run: 9 Seed: 582407788 194482257 [ Run 9 of 10 GA/GALS ]
Beginning LAMARCKIAN GENETIC ALGORITHM (LGA), with a maximum of 2500000 energy evaluations.

Final-Value: -11.287


	FINAL GENETIC ALGORITHM DOCKED STATE
	_______________________________________________


Detailed state:  trans 13.791 -2.431 4.574 quatxyzw 0.258143 -0.151274 0.333251 -0.894104 center 0.301 -0.077 0.021 ntor 5 118.6735 178.0555 -171.3545 12.3597 26.4743
State:	 13.791  -2.431   4.574   0.576 -0.338  0.744 -53.213    118.67  178.06 -171.35   12.36   26.47

DOCKED: MODEL        9
DOCKED: USER    Run = 9
DOCKED: USER    DPF = C:/Users/Admin/.mgltools/1.5.7/ws/dock.dpf
DOCKED: USER  
DOCKED: USER    Estimated Free Energy of Binding    =   -8.90 kcal/mol  [=(1)+(2)+(3)-(4)]
DOCKED: USER    Estimated Inhibition Constant, Ki   =  297.52 nM (nanomolar)  [Temperature = 298.15 K]
DOCKED: USER    
DOCKED: USER    (1) Final Intermolecular Energy     =   -9.38 kcal/mol
DOCKED: USER        vdW + Hbond + desolv Energy     =   -9.22 kcal/mol
DOCKED: USER        Electrostatic Energy            =   -0.16 kcal/mol
DOCKED: USER    (2) Final Total Internal Energy     =   -1.91 kcal/mol
DOCKED: USER    (3) Torsional Free Energy           =   +1.49 kcal/mol
DOCKED: USER    (4) Unbound System's Energy         =   -0.89 kcal/mol
DOCKED: USER    
DOCKED: USER    
DOCKED: USER    NEWDPF move IRI.pdbqt
DOCKED: USER    NEWDPF about 0.301000 -0.077000 0.021000
DOCKED: USER    NEWDPF tran0 13.790827 -2.431333 4.573500
DOCKED: USER    NEWDPF quaternion0 0.258143 -0.151274 0.333251 -0.894104
DOCKED: USER    NEWDPF axisangle0 0.576393 -0.337771 0.744098 -53.212745
DOCKED: USER    NEWDPF quat0 0.576393 -0.337771 0.744098 -53.212745
DOCKED: USER    NEWDPF dihe0 118.67 178.06 -171.35 12.36 26.47 
DOCKED: USER  keepresnum = 1 
DOCKED: USER  
DOCKED: REMARK  5 active torsions:
DOCKED: REMARK  status: ('A' for Active; 'I' for Inactive)
DOCKED: REMARK    1  A    between atoms: O_2  and  C_13 
DOCKED: REMARK    2  A    between atoms: O_3  and  C_12 
DOCKED: REMARK    3  A    between atoms: O_5  and  C_16 
DOCKED: REMARK    4  A    between atoms: O_6  and  C_21 
DOCKED: REMARK    5  A    between atoms: C_8  and  C_11 
DOCKED: USER                              x       y       z     vdW  Elec       q    Type
DOCKED: USER                           _______ _______ _______ _____ _____    ______ ____
DOCKED: ROOT
DOCKED: ATOM      1  O   UNK     0      12.646  -0.464   5.508 -0.43 +0.07    -0.321 OA
DOCKED: ATOM      2  O   UNK     0      14.498  -3.775   4.006 -0.28 +0.06    -0.286 OA
DOCKED: ATOM      3  C   UNK     0      14.676  -1.764   5.216 -0.34 -0.03    +0.085 A 
DOCKED: ATOM      4  C   UNK     0      12.469  -2.566   4.304 -0.42 -0.01    +0.048 A 
DOCKED: ATOM      5  C   UNK     0      13.992  -0.647   5.697 -0.31 -0.03    +0.094 A 
DOCKED: ATOM      6  C   UNK     0      13.931  -2.795   4.469 -0.29 -0.06    +0.200 A 
DOCKED: ATOM      7  C   UNK     0      16.048  -1.897   5.439 -0.36 -0.03    +0.119 A 
DOCKED: ATOM      8  C   UNK     0      16.731  -0.906   6.145 -0.32 -0.04    +0.135 A 
DOCKED: ATOM      9  C   UNK     0      14.678   0.342   6.402 -0.33 -0.03    +0.077 A 
DOCKED: ATOM     10  C   UNK     0      11.959  -1.441   4.829 -0.37 -0.04    +0.159 A 
DOCKED: ATOM     11  C   UNK     0      16.048   0.210   6.626 -0.32 -0.04    +0.104 A 
DOCKED: ENDROOT
DOCKED: BRANCH   4  12
DOCKED: ATOM     12  C   UNK     0      11.602  -3.535   3.613 -0.47 +0.01    -0.020 A 
DOCKED: ATOM     13  C   UNK     0      11.787  -3.796   2.255 -0.53 -0.00    +0.015 A 
DOCKED: ATOM     14  C   UNK     0      10.968  -4.715   1.600 -0.38 -0.01    +0.037 A 
DOCKED: ATOM     15  C   UNK     0       9.959  -5.375   2.304 -0.48 -0.01    +0.068 A 
DOCKED: ATOM     16  C   UNK     0       9.772  -5.115   3.662 -0.57 -0.01    +0.037 A 
DOCKED: ATOM     17  C   UNK     0      10.593  -4.197   4.316 -0.54 -0.00    +0.015 A 
DOCKED: BRANCH  15  18
DOCKED: ATOM     18  O   UNK     0       9.159  -6.271   1.666 -0.22 +0.06    -0.356 OA
DOCKED: ATOM     19  C   UNK     0       9.188  -7.618   2.136 -0.32 -0.04    +0.210 C 
DOCKED: ENDBRANCH  15  18
DOCKED: ENDBRANCH   4  12
DOCKED: BRANCH   7  20
DOCKED: ATOM     20  O   UNK     0      16.753  -2.973   4.986 -0.59 +0.10    -0.357 OA
DOCKED: ATOM     21  H   UNK     0      17.698  -2.873   5.180 -0.40 -0.14    +0.218 HD
DOCKED: ENDBRANCH   7  20
DOCKED: BRANCH   8  22
DOCKED: ATOM     22  O   UNK     0      18.072  -1.026   6.367 -0.30 +0.10    -0.351 OA
DOCKED: ATOM     23  C   UNK     0      18.476  -1.854   7.455 -0.44 -0.06    +0.210 C 
DOCKED: ENDBRANCH   8  22
DOCKED: BRANCH  11  24
DOCKED: ATOM     24  O   UNK     0      16.708   1.183   7.316 -0.23 +0.13    -0.358 OA
DOCKED: ATOM     25  H   UNK     0      17.664   1.015   7.250 +0.02 -0.09    +0.217 HD
DOCKED: ENDBRANCH  11  24
DOCKED: TORSDOF 5
DOCKED: TER
DOCKED: ENDMDL
________________________________________________________________________________


	BEGINNING GENETIC ALGORITHM DOCKING 10 of 10
Run: 10 Seed: 545430108 1051089609 [ Run 10 of 10 GA/GALS ]
Beginning LAMARCKIAN GENETIC ALGORITHM (LGA), with a maximum of 2500000 energy evaluations.

Final-Value: -11.195


	FINAL GENETIC ALGORITHM DOCKED STATE
	_______________________________________________


Detailed state:  trans 13.809 -2.442 4.586 quatxyzw -0.234061 0.157740 -0.336617 0.898345 center 0.301 -0.077 0.021 ntor 5 -52.1067 -179.6439 -172.6398 11.8478 -161.3715
State:	 13.809  -2.442   4.586  -0.533  0.359 -0.766 52.117    -52.11 -179.64 -172.64   11.85 -161.37

DOCKED: MODEL       10
DOCKED: USER    Run = 10
DOCKED: USER    DPF = C:/Users/Admin/.mgltools/1.5.7/ws/dock.dpf
DOCKED: USER  
DOCKED: USER    Estimated Free Energy of Binding    =   -8.81 kcal/mol  [=(1)+(2)+(3)-(4)]
DOCKED: USER    Estimated Inhibition Constant, Ki   =  347.27 nM (nanomolar)  [Temperature = 298.15 K]
DOCKED: USER    
DOCKED: USER    (1) Final Intermolecular Energy     =   -9.29 kcal/mol
DOCKED: USER        vdW + Hbond + desolv Energy     =   -9.15 kcal/mol
DOCKED: USER        Electrostatic Energy            =   -0.14 kcal/mol
DOCKED: USER    (2) Final Total Internal Energy     =   -1.91 kcal/mol
DOCKED: USER    (3) Torsional Free Energy           =   +1.49 kcal/mol
DOCKED: USER    (4) Unbound System's Energy         =   -0.89 kcal/mol
DOCKED: USER    
DOCKED: USER    
DOCKED: USER    NEWDPF move IRI.pdbqt
DOCKED: USER    NEWDPF about 0.301000 -0.077000 0.021000
DOCKED: USER    NEWDPF tran0 13.808895 -2.442217 4.585785
DOCKED: USER    NEWDPF quaternion0 -0.234061 0.157740 -0.336617 0.898345
DOCKED: USER    NEWDPF axisangle0 -0.532814 0.359077 -0.766272 52.117383
DOCKED: USER    NEWDPF quat0 -0.532814 0.359077 -0.766272 52.117383
DOCKED: USER    NEWDPF dihe0 -52.11 -179.64 -172.64 11.85 -161.37 
DOCKED: USER  keepresnum = 1 
DOCKED: USER  
DOCKED: REMARK  5 active torsions:
DOCKED: REMARK  status: ('A' for Active; 'I' for Inactive)
DOCKED: REMARK    1  A    between atoms: O_2  and  C_13 
DOCKED: REMARK    2  A    between atoms: O_3  and  C_12 
DOCKED: REMARK    3  A    between atoms: O_5  and  C_16 
DOCKED: REMARK    4  A    between atoms: O_6  and  C_21 
DOCKED: REMARK    5  A    between atoms: C_8  and  C_11 
DOCKED: USER                              x       y       z     vdW  Elec       q    Type
DOCKED: USER                           _______ _______ _______ _____ _____    ______ ____
DOCKED: ROOT
DOCKED: ATOM      1  O   UNK     0      12.654  -0.429   5.404 -0.39 +0.08    -0.321 OA
DOCKED: ATOM      2  O   UNK     0      14.521  -3.813   4.095 -0.28 +0.06    -0.286 OA
DOCKED: ATOM      3  C   UNK     0      14.681  -1.754   5.225 -0.34 -0.03    +0.085 A 
DOCKED: ATOM      4  C   UNK     0      12.494  -2.579   4.285 -0.42 -0.01    +0.048 A 
DOCKED: ATOM      5  C   UNK     0      13.993  -0.614   5.639 -0.32 -0.03    +0.094 A 
DOCKED: ATOM      6  C   UNK     0      13.949  -2.811   4.501 -0.29 -0.06    +0.200 A 
DOCKED: ATOM      7  C   UNK     0      16.045  -1.888   5.491 -0.36 -0.03    +0.119 A 
DOCKED: ATOM      8  C   UNK     0      16.717  -0.873   6.175 -0.32 -0.04    +0.135 A 
DOCKED: ATOM      9  C   UNK     0      14.667   0.400   6.321 -0.33 -0.03    +0.077 A 
DOCKED: ATOM     10  C   UNK     0      11.979  -1.430   4.748 -0.37 -0.04    +0.159 A 
DOCKED: ATOM     11  C   UNK     0      16.029   0.268   6.589 -0.31 -0.04    +0.104 A 
DOCKED: ENDROOT
DOCKED: BRANCH   4  12
DOCKED: ATOM     12  C   UNK     0      11.639  -3.571   3.611 -0.47 +0.01    -0.020 A 
DOCKED: ATOM     13  C   UNK     0      10.715  -4.313   4.346 -0.53 -0.00    +0.015 A 
DOCKED: ATOM     14  C   UNK     0       9.904  -5.252   3.708 -0.55 -0.01    +0.037 A 
DOCKED: ATOM     15  C   UNK     0      10.018  -5.450   2.331 -0.48 -0.01    +0.068 A 
DOCKED: ATOM     16  C   UNK     0      10.942  -4.709   1.594 -0.40 -0.01    +0.037 A 
DOCKED: ATOM     17  C   UNK     0      11.752  -3.770   2.233 -0.52 -0.00    +0.015 A 
DOCKED: BRANCH  15  18
DOCKED: ATOM     18  O   UNK     0       9.228  -6.365   1.707 -0.26 +0.06    -0.356 OA
DOCKED: ATOM     19  C   UNK     0       9.208  -7.685   2.250 -0.31 -0.04    +0.210 C 
DOCKED: ENDBRANCH  15  18
DOCKED: ENDBRANCH   4  12
DOCKED: BRANCH   7  20
DOCKED: ATOM     20  O   UNK     0      16.754  -2.986   5.104 -0.52 +0.11    -0.357 OA
DOCKED: ATOM     21  H   UNK     0      17.687  -2.900   5.352 -0.40 -0.13    +0.218 HD
DOCKED: ENDBRANCH   7  20
DOCKED: BRANCH   8  22
DOCKED: ATOM     22  O   UNK     0      18.050  -0.992   6.439 -0.30 +0.10    -0.351 OA
DOCKED: ATOM     23  C   UNK     0      18.416  -1.753   7.588 -0.44 -0.06    +0.210 C 
DOCKED: ENDBRANCH   8  22
DOCKED: BRANCH  11  24
DOCKED: ATOM     24  O   UNK     0      16.677   1.264   7.256 -0.22 +0.13    -0.358 OA
DOCKED: ATOM     25  H   UNK     0      17.633   1.082   7.231 +0.01 -0.09    +0.217 HD
DOCKED: ENDBRANCH  11  24
DOCKED: TORSDOF 5
DOCKED: TER
DOCKED: ENDMDL
________________________________________________________________________________

DPF> analysis                             # perform a ranked cluster analysis


		CLUSTER ANALYSIS OF CONFORMATIONS
		_________________________________

Number of conformations = 10

RMSD cluster analysis will be performed using the ligand atoms only (25 / 25 total atoms).

Outputting structurally similar clusters, ranked in order of increasing energy.


________________________________________________________________________________

Number of distinct conformational clusters found = 3,  out of 10 runs,
Using an rmsd-tolerance of 2.0 A


	CLUSTERING HISTOGRAM
	____________________

________________________________________________________________________________
     |           |     |           |     |                                    
Clus | Lowest    | Run | Mean      | Num | Histogram                          
-ter | Binding   |     | Binding   | in  |                                    
Rank | Energy    |     | Energy    | Clus|    5    10   15   20   25   30   35
_____|___________|_____|___________|_____|____:____|____:____|____:____|____:___
   1 |     -8.90 |   9 |     -8.65 |   8 |########
   2 |     -8.41 |   5 |     -8.41 |   1 |#
   3 |     -7.98 |   4 |     -7.98 |   1 |#
_____|___________|_____|___________|_____|______________________________________


Number of multi-member conformational clusters found = 1, out of 10 runs.

	RMSD TABLE
	__________

_____________________________________________________________________
     |      |      |           |         |                 |
Rank | Sub- | Run  | Binding   | Cluster | Reference       | Grep
     | Rank |      | Energy    | RMSD    | RMSD            | Pattern
_____|______|______|___________|_________|_________________|___________
   1      1      9       -8.90      0.00     11.23           RANKING
   1      2      6       -8.88      0.06     11.24           RANKING
   1      3      1       -8.86      0.23     11.15           RANKING
   1      4      8       -8.82      0.14     11.25           RANKING
   1      5     10       -8.81      0.10     11.25           RANKING
   1      6      3       -8.52      0.90     11.92           RANKING
   1      7      2       -8.26      1.78     12.20           RANKING
   1      8      7       -8.18      1.90     12.29           RANKING
   2      1      5       -8.41      0.00     13.80           RANKING
   3      1      4       -7.98      0.00     13.43           RANKING
_______________________________________________________________________



	INFORMATION ENTROPY ANALYSIS FOR THIS CLUSTERING
	________________________________________________


Information entropy for this clustering = 0.28  (rmstol = 2.00 Angstrom)

_______________________________________________________________________


	STATISTICAL MECHANICAL ANALYSIS
	_______________________________


Partition function, Q =    10.15            at Temperature, T = 298.15 K
Free energy,        A ~ -1372.80 kcal/mol   at Temperature, T = 298.15 K
Internal energy,    U =    -8.56 kcal/mol   at Temperature, T = 298.15 K
Entropy,            S =     4.58 kcal/mol/K at Temperature, T = 298.15 K

_______________________________________________________________________


	LOWEST ENERGY DOCKED CONFORMATION from EACH CLUSTER
	___________________________________________________



Keeping original residue number (specified in the input PDBQ file) for outputting.

MODEL        9
USER    Run = 9
USER    Cluster Rank = 1
USER    Number of conformations in this cluster = 8
USER  
USER    RMSD from reference structure       = 11.233 A
USER  
USER    Estimated Free Energy of Binding    =   -8.90 kcal/mol  [=(1)+(2)+(3)-(4)]
USER    Estimated Inhibition Constant, Ki   =  297.52 nM (nanomolar)  [Temperature = 298.15 K]
USER    
USER    (1) Final Intermolecular Energy     =   -9.38 kcal/mol
USER        vdW + Hbond + desolv Energy     =   -9.22 kcal/mol
USER        Electrostatic Energy            =   -0.16 kcal/mol
USER    (2) Final Total Internal Energy     =   -1.91 kcal/mol
USER    (3) Torsional Free Energy           =   +1.49 kcal/mol
USER    (4) Unbound System's Energy         =   -0.89 kcal/mol
USER    
USER    
USER  
USER    DPF = C:/Users/Admin/.mgltools/1.5.7/ws/dock.dpf
USER    NEWDPF move	IRI.pdbqt
USER    NEWDPF about	0.301000 -0.077000 0.021000
USER    NEWDPF tran0	13.790827 -2.431333 4.573500
USER    NEWDPF axisangle0	0.576393 -0.337771 0.744098 -53.212745
USER    NEWDPF quaternion0	0.258143 -0.151274 0.333251 -0.894104
USER    NEWDPF dihe0	118.67 178.06 -171.35 12.36 26.47 
USER  
USER                              x       y       z    vdW   Elec        q     RMS 
ATOM      1  O   UNK     0      12.646  -0.464   5.508 -0.43 +0.07    -0.321    11.233
ATOM      2  O   UNK     0      14.498  -3.775   4.006 -0.28 +0.06    -0.286    11.233
ATOM      3  C   UNK     0      14.676  -1.764   5.216 -0.34 -0.03    +0.085    11.233
ATOM      4  C   UNK     0      12.469  -2.566   4.304 -0.42 -0.01    +0.048    11.233
ATOM      5  C   UNK     0      13.992  -0.647   5.697 -0.31 -0.03    +0.094    11.233
ATOM      6  C   UNK     0      13.931  -2.795   4.469 -0.29 -0.06    +0.200    11.233
ATOM      7  C   UNK     0      16.048  -1.897   5.439 -0.36 -0.03    +0.119    11.233
ATOM      8  C   UNK     0      16.731  -0.906   6.145 -0.32 -0.04    +0.135    11.233
ATOM      9  C   UNK     0      14.678   0.342   6.402 -0.33 -0.03    +0.077    11.233
ATOM     10  C   UNK     0      11.959  -1.441   4.829 -0.37 -0.04    +0.159    11.233
ATOM     11  C   UNK     0      16.048   0.210   6.626 -0.32 -0.04    +0.104    11.233
ATOM     12  C   UNK     0      11.602  -3.535   3.613 -0.47 +0.01    -0.020    11.233
ATOM     13  C   UNK     0      11.787  -3.796   2.255 -0.53 -0.00    +0.015    11.233
ATOM     14  C   UNK     0      10.968  -4.715   1.600 -0.38 -0.01    +0.037    11.233
ATOM     15  C   UNK     0       9.959  -5.375   2.304 -0.48 -0.01    +0.068    11.233
ATOM     16  C   UNK     0       9.772  -5.115   3.662 -0.57 -0.01    +0.037    11.233
ATOM     17  C   UNK     0      10.593  -4.197   4.316 -0.54 -0.00    +0.015    11.233
ATOM     18  O   UNK     0       9.159  -6.271   1.666 -0.22 +0.06    -0.356    11.233
ATOM     19  C   UNK     0       9.188  -7.618   2.136 -0.32 -0.04    +0.210    11.233
ATOM     20  O   UNK     0      16.753  -2.973   4.986 -0.59 +0.10    -0.357    11.233
ATOM     21  H   UNK     0      17.698  -2.873   5.180 -0.40 -0.14    +0.218    11.233
ATOM     22  O   UNK     0      18.072  -1.026   6.367 -0.30 +0.10    -0.351    11.233
ATOM     23  C   UNK     0      18.476  -1.854   7.455 -0.44 -0.06    +0.210    11.233
ATOM     24  O   UNK     0      16.708   1.183   7.316 -0.23 +0.13    -0.358    11.233
ATOM     25  H   UNK     0      17.664   1.015   7.250 +0.02 -0.09    +0.217    11.233
TER
ENDMDL
MODEL        5
USER    Run = 5
USER    Cluster Rank = 2
USER    Number of conformations in this cluster = 1
USER  
USER    RMSD from reference structure       = 13.801 A
USER  
USER    Estimated Free Energy of Binding    =   -8.41 kcal/mol  [=(1)+(2)+(3)-(4)]
USER    Estimated Inhibition Constant, Ki   =  683.94 nM (nanomolar)  [Temperature = 298.15 K]
USER    
USER    (1) Final Intermolecular Energy     =   -9.09 kcal/mol
USER        vdW + Hbond + desolv Energy     =   -8.96 kcal/mol
USER        Electrostatic Energy            =   -0.13 kcal/mol
USER    (2) Final Total Internal Energy     =   -1.70 kcal/mol
USER    (3) Torsional Free Energy           =   +1.49 kcal/mol
USER    (4) Unbound System's Energy         =   -0.89 kcal/mol
USER    
USER    
USER  
USER    DPF = C:/Users/Admin/.mgltools/1.5.7/ws/dock.dpf
USER    NEWDPF move	IRI.pdbqt
USER    NEWDPF about	0.301000 -0.077000 0.021000
USER    NEWDPF tran0	16.206982 -3.162164 5.758208
USER    NEWDPF axisangle0	-0.798459 0.489406 0.350634 82.326463
USER    NEWDPF quaternion0	-0.525551 0.322131 0.230789 0.752837
USER    NEWDPF dihe0	-137.41 53.93 -34.51 -21.92 123.52 
USER  
USER                              x       y       z    vdW   Elec        q     RMS 
ATOM      1  O   UNK     0      16.801  -2.613   8.082 -0.67 +0.03    -0.321    13.801
ATOM      2  O   UNK     0      15.739  -3.537   4.252 -0.83 +0.04    -0.286    13.801
ATOM      3  C   UNK     0      17.037  -4.058   6.146 -0.36 -0.03    +0.085    13.801
ATOM      4  C   UNK     0      15.431  -2.118   6.139 -0.39 -0.02    +0.048    13.801
ATOM      5  C   UNK     0      17.369  -3.689   7.449 -0.45 -0.02    +0.094    13.801
ATOM      6  C   UNK     0      16.037  -3.264   5.407 -0.32 -0.05    +0.200    13.801
ATOM      7  C   UNK     0      17.648  -5.164   5.551 -0.21 -0.04    +0.119    13.801
ATOM      8  C   UNK     0      18.595  -5.897   6.268 -0.28 -0.04    +0.135    13.801
ATOM      9  C   UNK     0      18.315  -4.424   8.164 -0.49 -0.03    +0.077    13.801
ATOM     10  C   UNK     0      15.856  -1.894   7.392 -0.14 -0.04    +0.159    13.801
ATOM     11  C   UNK     0      18.927  -5.529   7.572 -0.41 -0.04    +0.104    13.801
ATOM     12  C   UNK     0      14.393  -1.268   5.532 -0.37 +0.01    -0.020    13.801
ATOM     13  C   UNK     0      13.480  -1.814   4.629 -0.39 -0.01    +0.015    13.801
ATOM     14  C   UNK     0      12.496  -1.009   4.054 -0.41 -0.01    +0.037    13.801
ATOM     15  C   UNK     0      12.425   0.345   4.382 -0.36 -0.02    +0.068    13.801
ATOM     16  C   UNK     0      13.336   0.894   5.284 -0.30 -0.01    +0.037    13.801
ATOM     17  C   UNK     0      14.319   0.088   5.859 -0.37 -0.01    +0.015    13.801
ATOM     18  O   UNK     0      11.466   1.131   3.822 -0.82 +0.07    -0.356    13.801
ATOM     19  C   UNK     0      11.864   2.429   3.381 -0.29 -0.09    +0.210    13.801
ATOM     20  O   UNK     0      17.352  -5.559   4.280 -0.33 +0.11    -0.357    13.801
ATOM     21  H   UNK     0      17.434  -4.818   3.660 -0.20 -0.06    +0.218    13.801
ATOM     22  O   UNK     0      19.199  -6.979   5.697 -0.19 +0.10    -0.351    13.801
ATOM     23  C   UNK     0      19.864  -6.767   4.455 -0.23 -0.05    +0.210    13.801
ATOM     24  O   UNK     0      19.850  -6.239   8.279 -0.25 +0.17    -0.358    13.801
ATOM     25  H   UNK     0      19.883  -7.144   7.924 +0.10 -0.09    +0.217    13.801
TER
ENDMDL
MODEL        4
USER    Run = 4
USER    Cluster Rank = 3
USER    Number of conformations in this cluster = 1
USER  
USER    RMSD from reference structure       = 13.431 A
USER  
USER    Estimated Free Energy of Binding    =   -7.98 kcal/mol  [=(1)+(2)+(3)-(4)]
USER    Estimated Inhibition Constant, Ki   =    1.41 uM (micromolar)  [Temperature = 298.15 K]
USER    
USER    (1) Final Intermolecular Energy     =   -8.44 kcal/mol
USER        vdW + Hbond + desolv Energy     =   -8.36 kcal/mol
USER        Electrostatic Energy            =   -0.08 kcal/mol
USER    (2) Final Total Internal Energy     =   -1.92 kcal/mol
USER    (3) Torsional Free Energy           =   +1.49 kcal/mol
USER    (4) Unbound System's Energy         =   -0.89 kcal/mol
USER    
USER    
USER  
USER    DPF = C:/Users/Admin/.mgltools/1.5.7/ws/dock.dpf
USER    NEWDPF move	IRI.pdbqt
USER    NEWDPF about	0.301000 -0.077000 0.021000
USER    NEWDPF tran0	15.669951 -1.324157 6.381027
USER    NEWDPF axisangle0	-0.931277 0.187158 -0.312562 -161.516216
USER    NEWDPF quaternion0	-0.919188 0.184729 -0.308504 -0.160603
USER    NEWDPF dihe0	170.12 -45.86 -1.65 -0.18 -42.17 
USER  
USER                              x       y       z    vdW   Elec        q     RMS 
ATOM      1  O   UNK     0      15.396  -3.718   5.882 -0.26 +0.09    -0.321    13.431
ATOM      2  O   UNK     0      15.862   0.266   6.630 -0.27 +0.10    -0.286    13.431
ATOM      3  C   UNK     0      16.642  -1.931   6.954 -0.42 -0.02    +0.085    13.431
ATOM      4  C   UNK     0      14.633  -1.442   5.516 -0.36 -0.02    +0.048    13.431
ATOM      5  C   UNK     0      16.428  -3.280   6.673 -0.42 -0.02    +0.094    13.431
ATOM      6  C   UNK     0      15.726  -0.925   6.384 -0.29 -0.07    +0.200    13.431
ATOM      7  C   UNK     0      17.710  -1.543   7.767 -0.42 -0.03    +0.119    13.431
ATOM      8  C   UNK     0      18.561  -2.514   8.297 -0.47 -0.05    +0.135    13.431
ATOM      9  C   UNK     0      17.280  -4.249   7.205 -0.43 -0.02    +0.077    13.431
ATOM     10  C   UNK     0      14.563  -2.770   5.340 -0.30 -0.05    +0.159    13.431
ATOM     11  C   UNK     0      18.347  -3.863   8.016 -0.48 -0.04    +0.104    13.431
ATOM     12  C   UNK     0      13.673  -0.542   4.854 -0.37 +0.01    -0.020    13.431
ATOM     13  C   UNK     0      12.306  -0.818   4.904 -0.43 -0.00    +0.015    13.431
ATOM     14  C   UNK     0      11.396   0.034   4.279 -0.27 -0.01    +0.037    13.431
ATOM     15  C   UNK     0      11.853   1.165   3.600 -0.27 -0.02    +0.068    13.431
ATOM     16  C   UNK     0      13.219   1.442   3.549 -0.27 -0.02    +0.037    13.431
ATOM     17  C   UNK     0      14.128   0.590   4.175 -0.28 -0.01    +0.015    13.431
ATOM     18  O   UNK     0      10.967   1.997   2.990 -0.63 +0.09    -0.356    13.431
ATOM     19  C   UNK     0      11.471   3.240   2.504 -0.29 -0.10    +0.210    13.431
ATOM     20  O   UNK     0      17.954  -0.235   8.065 -0.21 +0.11    -0.357    13.431
ATOM     21  H   UNK     0      17.927   0.312   7.266 +0.03 -0.08    +0.218    13.431
ATOM     22  O   UNK     0      19.606  -2.146   9.093 -0.27 +0.17    -0.351    13.431
ATOM     23  C   UNK     0      19.346  -2.030  10.489 -0.41 -0.11    +0.210    13.431
ATOM     24  O   UNK     0      19.173  -4.818   8.530 -0.32 +0.18    -0.358    13.431
ATOM     25  H   UNK     0      19.883  -4.377   9.028 -0.26 -0.17    +0.217    13.431
TER
ENDMDL


AVSFLD: # AVS field file
AVSFLD: #
AVSFLD: # Created by AutoDock
AVSFLD: #
AVSFLD: ndim=2           # number of dimensions in the field
AVSFLD: nspace=1         # number of physical coordinates
AVSFLD: veclen=7         # vector size
AVSFLD: dim1=25          # atoms
AVSFLD: dim2=3           # conformations
AVSFLD: data=Real       # data type (byte,integer,Real,double)
AVSFLD: field=uniform    # field coordinate layout
AVSFLD: label= x y z vdW Elec q RMS
AVSFLD: variable 1 file = C:/Users/Admin/.mgltools/1.5.7/ws/dock.dlg.pdb filetype = ascii offset = 5 stride = 12
AVSFLD: variable 2 file = C:/Users/Admin/.mgltools/1.5.7/ws/dock.dlg.pdb filetype = ascii offset = 6 stride = 12
AVSFLD: variable 3 file = C:/Users/Admin/.mgltools/1.5.7/ws/dock.dlg.pdb filetype = ascii offset = 7 stride = 12
AVSFLD: variable 4 file = C:/Users/Admin/.mgltools/1.5.7/ws/dock.dlg.pdb filetype = ascii offset = 8 stride = 12
AVSFLD: variable 5 file = C:/Users/Admin/.mgltools/1.5.7/ws/dock.dlg.pdb filetype = ascii offset = 9 stride = 12
AVSFLD: variable 6 file = C:/Users/Admin/.mgltools/1.5.7/ws/dock.dlg.pdb filetype = ascii offset = 10 stride = 12
AVSFLD: variable 7 file = C:/Users/Admin/.mgltools/1.5.7/ws/dock.dlg.pdb filetype = ascii offset = 11 stride = 12
AVSFLD: # end of file

>>> Closing the docking parameter file (DPF)...
This docking finished at:			7:11 29" p.m., 01/10/2026


________________________________________________________________________________

C:/Users/Admin/.mgltools/1.5.7/ws/autodock4.exe: Successful Completion on "DESKTOP-8TJI1NH"

Real= 4m 24.39s,  CPU= 4m 22.09s,  System= 0.72s
________________________________________________________________________________

