          AutoDock 4.2 Release 4.2.6   
         (C) 1989-2012 The Scripps Research Institute
        AutoDock comes with ABSOLUTELY NO WARRANTY.
        AutoDock is free software, and you are welcome
        to redistribute it under certain conditions;
        for details type 'autodock4 -C'

                     main.cc  $Revision: 1.213 $

                   Compiled on Jul 18 2014 at 15:34:58


This file was created at:			7:21 08" p.m., 01/10/2026
                   on host:		"DESKTOP-8TJI1NH"
Current Working Directory = "C:\Users\Admin\.mgltools\1.5.7\ws"

      ________________________________________________________________

                   SETTING UP DEFAULT PARAMETER LIBRARY
      ________________________________________________________________


Random number generator was seeded with values 24516, 1768053068.
Docking parameter file (DPF) used for this docking:		C:/Users/Admin/.mgltools/1.5.7/ws/dock.dpf
DPF> autodock_parameter_version 4.2       # used by autodock to validate parameter set

	Autodock parameter version 4.2.
DPF> outlev 1                             # diagnostic output level

Output Level = 1  ADT-COMPATIBLE OUTPUT DURING DOCKING.
DPF> intelec                              # calculate internal electrostatics

Electrostatic energies will be calculated for all non-bonds between moving atoms.
DPF> seed pid time                        # seeds for random generator

Random number generator was seeded with values 24516, 1768053068.
DPF> ligand_types A C OA                  # atoms types in ligand

DPF> fld HUMA.maps.fld                    # grid_data_file

Opening Grid Map Dimensions file:		HUMA.maps.fld
Grid Point Spacing =				0.447 Angstroms

Even Number of User-specified Grid Points =	36 x-points
						42 y-points
						38 z-points

Coordinates of Central Grid Point of Maps =	(11.837, -2.923, 4.726)
Macromolecule file used to create Grid Maps =	HUMA.pdbqt
Grid Parameter file used to create Grid Maps =	C:/Users/Admin/.mgltools/1.5.7/ws/grid.gpf
Minimum coordinates in grid = (3.791, -12.310, -3.767)
Maximum coordinates in grid = (19.883, 6.464, 13.219)

DPF> map HUMA.A.map                       # atom-specific affinity map

DPF> map HUMA.C.map                       # atom-specific affinity map

DPF> map HUMA.OA.map                      # atom-specific affinity map

DPF> elecmap HUMA.e.map                   # electrostatics map

DPF> desolvmap HUMA.d.map                 # desolvation map

DPF> move DEC.pdbqt                       # small molecule

1,4-interactions will be _ignored_ in the non-bonded internal energy calculation.

Ligand PDBQT file = "DEC.pdbqt"

INPUT LIGAND PDBQT FILE:
________________________

INPUT-LIGAND-PDBQT: REMARK  3 active torsions:
INPUT-LIGAND-PDBQT: REMARK  status: ('A' for Active; 'I' for Inactive)
INPUT-LIGAND-PDBQT: REMARK    1  A    between atoms: O_2  and  C_7 
INPUT-LIGAND-PDBQT: REMARK    2  A    between atoms: O_2  and  C_17 
INPUT-LIGAND-PDBQT: REMARK    3  A    between atoms: C_17  and  C_20 
INPUT-LIGAND-PDBQT: ROOT
INPUT-LIGAND-PDBQT: HETATM    1  O   UNK     0      -0.466   2.263  -0.243  0.00  0.00    -0.338 OA
INPUT-LIGAND-PDBQT: HETATM    2  O   UNK     0      -4.818   0.386  -0.152  0.00  0.00    -0.275 OA
INPUT-LIGAND-PDBQT: HETATM    3  O   UNK     0      -6.931  -0.496  -0.105  0.00  0.00    -0.260 OA
INPUT-LIGAND-PDBQT: HETATM    4  C   UNK     0       0.931   2.175   0.099  0.00  0.00     0.087 C 
INPUT-LIGAND-PDBQT: HETATM    5  C   UNK     0       1.550   0.855  -0.405  0.00  0.00     0.170 C 
INPUT-LIGAND-PDBQT: HETATM    6  C   UNK     0       0.814  -0.351   0.168  0.00  0.00     0.077 C 
INPUT-LIGAND-PDBQT: HETATM    7  C   UNK     0      -0.669  -0.153   0.082  0.00  0.00    -0.021 A 
INPUT-LIGAND-PDBQT: HETATM    8  C   UNK     0      -1.215   1.124  -0.109  0.00  0.00     0.079 A 
INPUT-LIGAND-PDBQT: HETATM    9  C   UNK     0       1.084   2.386   1.615  0.00  0.00     0.049 C 
INPUT-LIGAND-PDBQT: HETATM   10  C   UNK     0       1.606   3.360  -0.613  0.00  0.00     0.049 C 
INPUT-LIGAND-PDBQT: HETATM   11  C   UNK     0      -1.526  -1.257   0.222  0.00  0.00     0.024 A 
INPUT-LIGAND-PDBQT: HETATM   12  C   UNK     0      -2.598   1.292  -0.196  0.00  0.00     0.075 A 
INPUT-LIGAND-PDBQT: HETATM   13  C   UNK     0      -2.911  -1.094   0.146  0.00  0.00    -0.001 A 
INPUT-LIGAND-PDBQT: HETATM   14  C   UNK     0      -3.427   0.180  -0.065  0.00  0.00     0.092 A 
INPUT-LIGAND-PDBQT: HETATM   15  C   UNK     0      -3.832  -2.210   0.280  0.00  0.00     0.020 A 
INPUT-LIGAND-PDBQT: HETATM   16  C   UNK     0      -5.150  -2.007   0.198  0.00  0.00     0.083 A 
INPUT-LIGAND-PDBQT: HETATM   17  C   UNK     0      -5.720  -0.666  -0.029  0.00  0.00     0.288 A 
INPUT-LIGAND-PDBQT: ENDROOT
INPUT-LIGAND-PDBQT: BRANCH   5  18
INPUT-LIGAND-PDBQT: HETATM   18  O   UNK     0       2.928   0.778  -0.057  0.00  0.00    -0.309 OA
INPUT-LIGAND-PDBQT: BRANCH  18  19
INPUT-LIGAND-PDBQT: HETATM   19  C   UNK     0       3.575  -0.346  -0.470  0.00  0.00     0.283 C 
INPUT-LIGAND-PDBQT: HETATM   20  O   UNK     0       3.322  -1.008  -1.463  0.00  0.00    -0.260 OA
INPUT-LIGAND-PDBQT: BRANCH  19  21
INPUT-LIGAND-PDBQT: HETATM   21  C   UNK     0       4.637  -0.634   0.523  0.00  0.00     0.084 C 
INPUT-LIGAND-PDBQT: HETATM   22  C   UNK     0       5.792  -1.274   0.266  0.00  0.00    -0.082 C 
INPUT-LIGAND-PDBQT: HETATM   23  C   UNK     0       6.786  -1.498   1.377  0.00  0.00     0.043 C 
INPUT-LIGAND-PDBQT: HETATM   24  C   UNK     0       6.239  -1.804  -1.068  0.00  0.00     0.043 C 
INPUT-LIGAND-PDBQT: ENDBRANCH  19  21
INPUT-LIGAND-PDBQT: ENDBRANCH  18  19
INPUT-LIGAND-PDBQT: ENDBRANCH   5  18
INPUT-LIGAND-PDBQT: TORSDOF 3
________________________________________________________________________________

Total charge on ligand                               =	-0.000 e
REMARK  3 active torsions:
REMARK  status: ('A' for Active; 'I' for Inactive)
REMARK    1  A    between atoms: O_2  and  C_7 
REMARK    2  A    between atoms: O_2  and  C_17 
REMARK    3  A    between atoms: C_17  and  C_20 


Number of Rotatable Bonds in Small Molecule =	3 torsions
Number of atoms in ligand:  24

Number of non-hydrogen atoms in ligand:  24

Number of vibrational degrees of freedom of ligand:  66


Number of torsional degrees of freedom = 3
Estimated loss of torsional free energy upon binding = +0.8949 kcal/mol


DPF> about 0.000 0.000 0.000            # small molecule center

Small molecule center of rotation =	(+0.000, +0.000, +0.000)

DPF> tran0 random                         # initial coordinates/A or random

Initial translation =			(6.446, -8.601, 10.436) Angstroms
DPF> quaternion0 random                   # initial orientation

Each run will begin with a new, random initial orientation.
Initial quaternion,  (x,y,z,w) =	( 0.670, -0.550, 0.490, -0.087 ),
DPF> dihe0 random                         # initial dihedrals (relative) or random

DPF> torsdof 3                            # torsional degrees of freedom

Number of torsional degrees of freedom = 3
Free energy coefficient for torsional degrees of freedom = 0.2983, the factory default value.

Estimated loss of torsional free energy upon binding = +0.8949 kcal/mol

DPF> rmstol 2.0                           # cluster_tolerance/A

Maximum RMS tolerance for conformational cluster analysis = 2.00 Angstroms
DPF> extnrg 1000.0                        # external grid energy

External grid energy (beyond grid map walls) = 1000.00

DPF> e0max 0.0 10000                      # max initial energy; max number of retries

Using user-specified maximum number of retries for simanneal initialization, 10000 retries.
If the simanneal initial energy is greater than e0max, 0.000,
then a new, random initial state will be created.

DPF> ga_pop_size 150                      # number of individuals in population

A population of 150 individuals will be used
DPF> ga_num_evals 2500000                 # maximum number of energy evaluations

There will be at most 2500000 function evaluations used.
DPF> ga_num_generations 27000             # maximum number of generations

The GA will run for at most 27000 generations.
DPF> ga_elitism 1                         # number of top individuals to survive to next generation

The 1 best will be preserved each GA generation.
DPF> ga_mutation_rate 0.02                # rate of gene mutation

The mutation rate is 0.020000.
DPF> ga_crossover_rate 0.8                # rate of crossover

The crossover rate is 0.800000.
DPF> ga_window_size 10                    # 

The GA's selection window is 10 generations.
DPF> ga_cauchy_alpha 0.0                  # Alpha parameter of Cauchy distribution

The alpha parameter (for the Cauchy distribution) is being set to 0.000000.
DPF> ga_cauchy_beta 1.0                   # Beta parameter Cauchy distribution

The beta parameter (for the Cauchy distribution) is being set to 1.000000.
DPF> set_ga                               # set the above parameters for GA or LGA

DPF> sw_max_its 300                       # iterations of Solis & Wets local search

Solis & Wets algorithms will perform at most 300 iterations.
DPF> sw_max_succ 4                        # consecutive successes before changing rho

Solis & Wets algorithms expand rho every 4 in a row successes.
DPF> sw_max_fail 4                        # consecutive failures before changing rho

Solis & Wets algorithms contract rho every 4 in a row failures.
DPF> sw_rho 1.0                           # size of local search space to sample

rho is set to 1.000000.
DPF> sw_lb_rho 0.01                       # lower bound on rho

rho will never get smaller than 0.010000.
DPF> ls_search_freq 0.06                  # probability of performing local search on individual

Local search will be performed with frequency 0.060000.
DPF> set_psw1                             # set the above pseudo-Solis & Wets parameters

Creating a new Local Search object using the pseudo-Solis-Wets algorithm (pSW1) with the current settings.

DPF> unbound_model extended               # state of unbound ligand

C:/Users/Admin/.mgltools/1.5.7/ws/autodock4.exe: WARNING: Using autodock4.0 unbound extended model in autodock4.2!
Computing the energy of the unbound state of the ligand,
given the torsion tree defined in the ligand file.


	BEGINNING COMPUTATION OF UNBOUND EXTENDED STATE USING LGA
	_________________________________________________________


Date:	Sat Jan 10 19:21:09 2026
Beginning LAMARCKIAN GENETIC ALGORITHM (LGA), with a maximum of 1000000 energy evaluations.

Final-Value: -702.955

Finished Lamarckian Genetic Algorithm (LGA)
7:21 21" p.m., 01/10/2026

Total number of Energy Evaluations: 1000366
Total number of Generations:        1006


		Ligand Intramolecular Energy Analysis
		=====================================

Non-bond  Atom1-Atom2  Distance   Total        Elec     vdW        Hb     Desolv     Sol_fn   Type Dielectric
________  ___________  ________   ______  _________  ________ ________  ________   ________   ____ __________
      1       1-19      4.6977   -0.0517    -0.0416   -0.0140   +0.0000   +0.0039    +0.0564   1    22.844
      2       1-20      4.8384   +0.0299    +0.0357   -0.0072   +0.0000   +0.0014    +0.0536   1    23.741
      3       1-21      5.9681   -0.0095    -0.0071   -0.0035   +0.0000   +0.0011    +0.0335   1    31.226
      4       1-22      7.1874   +0.0040    +0.0045   -0.0011   +0.0000   +0.0006    +0.0180   1    39.572
      5       1-23      8.4303   -0.0015    -0.0017   +0.0000   +0.0000   +0.0002    +0.0085   1    47.719
      6       1-24      7.6849   -0.0025    -0.0021   -0.0007   +0.0000   +0.0003    +0.0136   1    42.898
      7       2-19      8.6305   -0.0083    -0.0086   +0.0000   +0.0000   +0.0003    +0.0075   1    48.957
      8       2-20      8.6433   +0.0080    +0.0079   +0.0000   +0.0000   +0.0001    +0.0074   1    49.035
      9       2-21      9.8031   -0.0019    -0.0020   +0.0000   +0.0000   +0.0000    +0.0032   1    55.684
     10       2-22     10.9828   +0.0016    +0.0016   +0.0000   +0.0000   +0.0000    +0.0013   1    61.354
     11       2-23     12.1501   -0.0007    -0.0007   +0.0000   +0.0000   +0.0000    +0.0004   1    65.846
     12       2-24     11.4497   -0.0008    -0.0008   +0.0000   +0.0000   +0.0000    +0.0008   1    63.287
     13       3-19     10.7747   -0.0052    -0.0053   +0.0000   +0.0000   +0.0001    +0.0015   1    60.442
     14       3-20     10.7597   +0.0049    +0.0049   +0.0000   +0.0000   +0.0000    +0.0015   1    60.371
     15       3-21     11.9020   -0.0013    -0.0013   +0.0000   +0.0000   +0.0000    +0.0006   1    64.986
     16       3-22     13.0508   +0.0011    +0.0011   +0.0000   +0.0000   +0.0000    +0.0002   1    68.603
     17       3-23     14.1789   -0.0005    -0.0005   +0.0000   +0.0000   -0.0000    +0.0001   1    71.296
     18       3-24     13.5014   -0.0006    -0.0006   +0.0000   +0.0000   -0.0000    +0.0001   1    69.772
     19       4-20      3.9106   -0.0433    -0.0150   -0.0286   +0.0000   +0.0002    +0.0733   1    18.049
     20       4-21      4.7132   -0.0179    +0.0032   -0.0192   +0.0000   -0.0019    +0.0562   1    22.928
     21       4-22      5.9583   -0.0085    -0.0018   -0.0056   +0.0000   -0.0011    +0.0336   1    31.173
     22       4-23      7.1466   -0.0021    +0.0006   -0.0019   +0.0000   -0.0009    +0.0184   1    39.291
     23       4-24      6.5721   -0.0036    +0.0008   -0.0031   +0.0000   -0.0012    +0.0250   1    35.370
     24       5-22      4.8014   -0.0237    -0.0058   -0.0177   +0.0000   -0.0002    +0.0544   1    23.492
     25       5-23      6.0338   -0.0039    +0.0018   -0.0052   +0.0000   -0.0006    +0.0325   1    31.687
     26       5-24      5.4118   -0.0081    +0.0023   -0.0096   +0.0000   -0.0007    +0.0427   1    27.487
     27       6-20      3.7639   -0.0431    -0.0144   -0.0288   +0.0000   +0.0001    +0.0766   1    17.203
     28       6-21      4.1938   -0.0237    +0.0037   -0.0249   +0.0000   -0.0025    +0.0671   1    19.717
     29       6-22      5.4182   -0.0132    -0.0020   -0.0096   +0.0000   -0.0016    +0.0426   1    27.526
     30       6-23      6.4859   -0.0040    +0.0007   -0.0034   +0.0000   -0.0013    +0.0261   1    34.779
     31       6-24      6.1639   -0.0054    +0.0008   -0.0046   +0.0000   -0.0016    +0.0306   1    32.562
     32       7-19      4.6103   -0.0209    -0.0027   -0.0209   +0.0000   +0.0027    +0.0582   1    22.294
     33       7-20      4.8802   -0.0088    +0.0022   -0.0114   +0.0000   +0.0003    +0.0528   1    24.009
     34       7-21      5.6553   -0.0091    -0.0005   -0.0075   +0.0000   -0.0010    +0.0385   1    29.114
     35       7-22      6.8637   -0.0027    +0.0003   -0.0024   +0.0000   -0.0006    +0.0215   1    37.360
     36       7-23      7.9743   -0.0015    -0.0001   -0.0010   +0.0000   -0.0005    +0.0114   1    44.798
     37       7-24      7.4983   -0.0022    -0.0001   -0.0014   +0.0000   -0.0006    +0.0151   1    41.665
     38       8-19      5.1222   -0.0017    +0.0080   -0.0130   +0.0000   +0.0033    +0.0481   1    25.568
     39       8-20      5.2769   -0.0133    -0.0068   -0.0073   +0.0000   +0.0008    +0.0452   1    26.596
     40       8-21      6.3282   -0.0026    +0.0015   -0.0039   +0.0000   -0.0002    +0.0282   1    33.692
     41       8-22      7.5562   -0.0024    -0.0010   -0.0013   +0.0000   -0.0001    +0.0146   1    42.053
     42       8-23      8.7551   +0.0002    +0.0004   +0.0000   +0.0000   -0.0001    +0.0069   1    49.714
     43       8-24      8.0989   +0.0002    +0.0004   +0.0000   +0.0000   -0.0002    +0.0105   1    45.604
     44       9-19      4.2794   -0.0157    +0.0075   -0.0249   +0.0000   +0.0017    +0.0652   1    20.252
     45       9-20      4.9702   -0.0153    -0.0049   -0.0103   +0.0000   -0.0002    +0.0510   1    24.581
     46       9-21      5.0933   -0.0141    +0.0015   -0.0133   +0.0000   -0.0023    +0.0486   1    25.389
     47       9-22      6.4032   -0.0058    -0.0009   -0.0036   +0.0000   -0.0013    +0.0272   1    34.214
     48       9-23      7.3570   -0.0022    +0.0003   -0.0016   +0.0000   -0.0010    +0.0164   1    40.718
     49       9-24      7.2817   -0.0024    +0.0003   -0.0017   +0.0000   -0.0011    +0.0171   1    40.200
     50      10-19      3.6977   -0.0123    +0.0104   -0.0247   +0.0000   +0.0020    +0.0781   1    16.821
     51      10-20      3.8368   -0.0379    -0.0088   -0.0288   +0.0000   -0.0003    +0.0749   1    17.628
     52      10-21      4.9031   -0.0169    +0.0016   -0.0161   +0.0000   -0.0025    +0.0523   1    24.153
     53      10-22      5.9810   -0.0080    -0.0010   -0.0054   +0.0000   -0.0016    +0.0333   1    31.315
     54      10-23      7.2331   -0.0025    +0.0003   -0.0017   +0.0000   -0.0011    +0.0176   1    39.880
     55      10-24      6.3788   -0.0050    +0.0005   -0.0037   +0.0000   -0.0017    +0.0275   1    34.046
     56      11-19      5.6875   -0.0036    +0.0019   -0.0073   +0.0000   +0.0018    +0.0380   1    29.336
     57      11-20      5.9279   -0.0050    -0.0016   -0.0036   +0.0000   +0.0002    +0.0341   1    30.958
     58      11-21      6.6051   -0.0032    +0.0004   -0.0030   +0.0000   -0.0006    +0.0246   1    35.597
     59      11-22      7.7485   -0.0018    -0.0003   -0.0011   +0.0000   -0.0003    +0.0130   1    43.327
     60      11-23      8.7720   -0.0002    +0.0001   +0.0000   +0.0000   -0.0003    +0.0068   1    49.822
     61      11-24      8.3855   -0.0002    +0.0001   +0.0000   +0.0000   -0.0004    +0.0088   1    47.439
     62      12-19      6.4838   +0.0028    +0.0044   -0.0034   +0.0000   +0.0017    +0.0261   1    34.762
     63      12-20      6.5460   -0.0055    -0.0040   -0.0020   +0.0000   +0.0004    +0.0253   1    35.190
     64      12-21      7.7121   -0.0004    +0.0009   -0.0012   +0.0000   -0.0001    +0.0133   1    43.086
     65      12-22      8.9240   -0.0007    -0.0006   +0.0000   +0.0000   -0.0000    +0.0061   1    50.733
     66      12-23     10.1341   +0.0002    +0.0003   +0.0000   +0.0000   -0.0001    +0.0025   1    57.390
     67      12-24      9.4108   +0.0002    +0.0003   +0.0000   +0.0000   -0.0001    +0.0043   1    53.540
     68      13-19      6.9442   -0.0015    -0.0001   -0.0022   +0.0000   +0.0008    +0.0206   1    37.917
     69      13-20      7.0881   -0.0011    +0.0000   -0.0012   +0.0000   +0.0001    +0.0190   1    38.888
     70      13-21      7.9444   -0.0014    -0.0000   -0.0010   +0.0000   -0.0004    +0.0116   1    44.607
     71      13-22      9.0913   -0.0002    +0.0000   +0.0000   +0.0000   -0.0002    +0.0055   1    51.714
     72      13-23     10.1512   -0.0001    -0.0000   +0.0000   +0.0000   -0.0001    +0.0025   1    57.475
     73      13-24      9.6640   -0.0002    -0.0000   +0.0000   +0.0000   -0.0002    +0.0036   1    54.937
     74      14-19      7.2631   +0.0037    +0.0042   -0.0017   +0.0000   +0.0013    +0.0173   1    40.084
     75      14-20      7.3338   -0.0044    -0.0038   -0.0010   +0.0000   +0.0003    +0.0166   1    40.561
     76      14-21      8.4069   +0.0009    +0.0009   +0.0000   +0.0000   -0.0000    +0.0087   1    47.567
     77      14-22      9.5938   -0.0007    -0.0007   +0.0000   +0.0000   -0.0000    +0.0038   1    54.558
     78      14-23     10.7458   +0.0003    +0.0003   +0.0000   +0.0000   -0.0000    +0.0015   1    60.312
     79      14-24     10.1040   +0.0003    +0.0003   +0.0000   +0.0000   -0.0000    +0.0026   1    57.235
     80      15-19      8.1405   +0.0012    +0.0007   +0.0000   +0.0000   +0.0005    +0.0103   1    45.876
     81      15-20      8.2753   -0.0006    -0.0006   +0.0000   +0.0000   +0.0001    +0.0094   1    46.739
     82      15-21      9.0476   +0.0000    +0.0002   +0.0000   +0.0000   -0.0002    +0.0056   1    51.463
     83      15-22     10.1394   -0.0002    -0.0001   +0.0000   +0.0000   -0.0001    +0.0025   1    57.414
     84      15-23     11.1253   +0.0000    +0.0001   +0.0000   +0.0000   -0.0000    +0.0011   1    61.963
     85      15-24     10.7113   -0.0000    +0.0001   +0.0000   +0.0000   -0.0001    +0.0016   1    60.153
     86      16-19      9.3168   +0.0025    +0.0022   +0.0000   +0.0000   +0.0003    +0.0046   1    53.013
     87      16-20      9.3939   -0.0019    -0.0020   +0.0000   +0.0000   +0.0001    +0.0044   1    53.447
     88      16-21     10.2908   +0.0005    +0.0005   +0.0000   +0.0000   -0.0000    +0.0022   1    58.165
     89      16-22     11.3950   -0.0004    -0.0004   +0.0000   +0.0000   -0.0000    +0.0009   1    63.070
     90      16-23     12.4179   +0.0002    +0.0002   +0.0000   +0.0000   -0.0000    +0.0003   1    66.728
     91      16-24     11.9236   +0.0002    +0.0002   +0.0000   +0.0000   -0.0000    +0.0005   1    65.061
     92      17-19      9.5988   +0.0078    +0.0073   +0.0000   +0.0000   +0.0005    +0.0038   1    54.585
     93      17-20      9.6187   -0.0064    -0.0066   +0.0000   +0.0000   +0.0002    +0.0037   1    54.691
     94      17-21     10.7003   +0.0019    +0.0018   +0.0000   +0.0000   +0.0001    +0.0016   1    60.100
     95      17-22     11.8499   -0.0014    -0.0014   +0.0000   +0.0000   +0.0000    +0.0006   1    64.797
     96      17-23     12.9631   +0.0007    +0.0007   +0.0000   +0.0000   +0.0000    +0.0002   1    68.360
     97      17-24     12.3295   +0.0007    +0.0007   +0.0000   +0.0000   +0.0000    +0.0004   1    66.444
     98      18-23      4.7317   -0.0184    -0.0057   -0.0134   +0.0000   +0.0007    +0.0558   1    23.054
     99      18-24      4.4022   -0.0252    -0.0067   -0.0193   +0.0000   +0.0008    +0.0626   1    21.000
    100      20-23      4.4824   -0.0235    -0.0054   -0.0178   +0.0000   -0.0003    +0.0610   1    21.478
    101      20-24      2.9533   -0.0130    -0.0138   +0.0012   +0.0000   -0.0005    +0.0944   1    12.825
                                ________   ________  ________  ________  ________
Total                            -0.5354    -0.0585   -0.4723    +0.0000   -0.0046
                                ________  ________  ________  ________ ________
                                   Total       Elec       vdW        Hb    Desolv


	Per-atom Intramolecular Energy Analysis
	=======================================

Atom Type   Total     Elec       vdW        Hb     Desolv 
____ ___  ________  ________  ________  ________  ________
   1  OA   -0.0157   -0.0061   -0.0133   +0.0000   +0.0037
   2  OA   -0.0011   -0.0013   +0.0000   +0.0000   +0.0002
   3  OA   -0.0008   -0.0008   +0.0000   +0.0000   +0.0000
   4  C    -0.0377   -0.0061   -0.0292   +0.0000   -0.0024
   5  C    -0.0179   -0.0008   -0.0163   +0.0000   -0.0007
   6  C    -0.0447   -0.0057   -0.0356   +0.0000   -0.0034
   7  A    -0.0226   -0.0005   -0.0223   +0.0000   +0.0002
   8  A    -0.0098   +0.0012   -0.0127   +0.0000   +0.0017
   9  C    -0.0278   +0.0019   -0.0277   +0.0000   -0.0021
  10  C    -0.0413   +0.0015   -0.0403   +0.0000   -0.0025
  11  A    -0.0070   +0.0003   -0.0075   +0.0000   +0.0002
  12  A    -0.0017   +0.0006   -0.0033   +0.0000   +0.0009
  13  A    -0.0022   -0.0000   -0.0022   +0.0000   -0.0000
  14  A    +0.0000   +0.0006   -0.0013   +0.0000   +0.0008
  15  A    +0.0002   +0.0001   +0.0000   +0.0000   +0.0001
  16  A    +0.0006   +0.0004   +0.0000   +0.0000   +0.0002
  17  A    +0.0016   +0.0011   +0.0000   +0.0000   +0.0005
  18  OA   -0.0218   -0.0062   -0.0164   +0.0000   +0.0008
  19  C    -0.0514   -0.0059   -0.0560   +0.0000   +0.0105
  20  OA   -0.0902   -0.0185   -0.0733   +0.0000   +0.0016
  21  C    -0.0494   +0.0026   -0.0468   +0.0000   -0.0052
  22  C    -0.0314   -0.0042   -0.0240   +0.0000   -0.0033
  23  C    -0.0298   -0.0042   -0.0229   +0.0000   -0.0027
  24  C    -0.0337   -0.0086   -0.0214   +0.0000   -0.0036


Total Intramolecular Interaction Energy   = -0.535 kcal/mol


The internal energy of the unbound extended state was computed to be -0.535 kcal/mol

NOTE:   The AutoDock internal energy of the "extended" state was negative.

NOTE:   The unbound state was set to the "extended" state.



The internal energy of the unbound state was set to -0.535 kcal/mol



	FINAL UNBOUND STATE
	___________________


Detailed state:  trans 14.483 -7.394 8.574 quatxyzw 0.503405 0.773885 0.206412 -0.324160 center 0.000 0.000 0.000 ntor 3 -20.3807 -5.8510 46.1025
State:	 14.483  -7.394   8.574   0.532  0.818  0.218 -142.171    -20.38   -5.85   46.10

UNBOUND: MODEL        0
UNBOUND: USER    Run = 0
UNBOUND: USER    DPF = C:/Users/Admin/.mgltools/1.5.7/ws/dock.dpf
UNBOUND: USER  
UNBOUND: USER    (1) Final Intermolecular Energy     =   +0.00 kcal/mol
UNBOUND: USER        vdW + Hbond + desolv Energy     =   +0.00 kcal/mol
UNBOUND: USER        Electrostatic Energy            =   +0.00 kcal/mol
UNBOUND: USER    (2) Final Total Internal Energy     =   -0.54 kcal/mol
UNBOUND: USER    (3) Torsional Free Energy           =   +0.89 kcal/mol
UNBOUND: USER    (4) Unbound System's Energy         =   -0.54 kcal/mol
UNBOUND: USER    
UNBOUND: USER    
UNBOUND: USER    NEWDPF move DEC.pdbqt
UNBOUND: USER    NEWDPF about 0.000000 0.000000 0.000000
UNBOUND: USER    NEWDPF tran0 14.482913 -7.394397 8.574363
UNBOUND: USER    NEWDPF quaternion0 0.503405 0.773885 0.206412 -0.324160
UNBOUND: USER    NEWDPF axisangle0 0.532139 0.818058 0.218194 -142.170620
UNBOUND: USER    NEWDPF quat0 0.532139 0.818058 0.218194 -142.170620
UNBOUND: USER    NEWDPF dihe0 -20.38 -5.85 46.10 
UNBOUND: USER  keepresnum = 1 
UNBOUND: USER  
UNBOUND: REMARK  3 active torsions:
UNBOUND: REMARK  status: ('A' for Active; 'I' for Inactive)
UNBOUND: REMARK    1  A    between atoms: O_2  and  C_7 
UNBOUND: REMARK    2  A    between atoms: O_2  and  C_17 
UNBOUND: REMARK    3  A    between atoms: C_17  and  C_20 
UNBOUND: USER                              x       y       z     vdW  Elec       q    Type
UNBOUND: USER                           _______ _______ _______ _____ _____    ______ ____
UNBOUND: ROOT
UNBOUND: ATOM      1  O   UNK     0      15.903  -6.895  10.344 +0.00 +0.00    -0.338 OA
UNBOUND: ATOM      2  O   UNK     0      15.988 -11.635  10.347 +0.00 +0.00    -0.275 OA
UNBOUND: ATOM      3  O   UNK     0      16.050 -13.924  10.365 +0.00 +0.00    -0.260 OA
UNBOUND: ATOM      4  C   UNK     0      15.693  -5.658   9.636 +0.00 +0.00    +0.087 C 
UNBOUND: ATOM      5  C   UNK     0      14.309  -5.628   8.956 +0.00 +0.00    +0.170 C 
UNBOUND: ATOM      6  C   UNK     0      14.145  -6.796   7.990 +0.00 +0.00    +0.077 C 
UNBOUND: ATOM      7  C   UNK     0      14.632  -8.068   8.614 +0.00 +0.00    -0.021 A 
UNBOUND: ATOM      8  C   UNK     0      15.475  -8.044   9.734 +0.00 +0.00    +0.079 A 
UNBOUND: ATOM      9  C   UNK     0      16.862  -5.442   8.659 +0.00 +0.00    +0.049 C 
UNBOUND: ATOM     10  C   UNK     0      15.762  -4.553  10.704 +0.00 +0.00    +0.049 C 
UNBOUND: ATOM     11  C   UNK     0      14.261  -9.302   8.055 +0.00 +0.00    +0.024 A 
UNBOUND: ATOM     12  C   UNK     0      15.913  -9.238  10.310 +0.00 +0.00    +0.075 A 
UNBOUND: ATOM     13  C   UNK     0      14.704 -10.499   8.620 +0.00 +0.00    -0.001 A 
UNBOUND: ATOM     14  C   UNK     0      15.523 -10.449   9.744 +0.00 +0.00    +0.092 A 
UNBOUND: ATOM     15  C   UNK     0      14.340 -11.796   8.076 +0.00 +0.00    +0.020 A 
UNBOUND: ATOM     16  C   UNK     0      14.786 -12.916   8.652 +0.00 +0.00    +0.083 A 
UNBOUND: ATOM     17  C   UNK     0      15.651 -12.888   9.846 +0.00 +0.00    +0.288 A 
UNBOUND: ENDROOT
UNBOUND: BRANCH   5  18
UNBOUND: ATOM     18  O   UNK     0      14.116  -4.403   8.256 +0.00 +0.00    -0.309 OA
UNBOUND: BRANCH  18  19
UNBOUND: ATOM     19  C   UNK     0      12.919  -3.790   8.466 +0.00 +0.00    +0.283 C 
UNBOUND: ATOM     20  O   UNK     0      12.195  -3.921   9.439 +0.00 +0.00    -0.260 OA
UNBOUND: BRANCH  19  21
UNBOUND: ATOM     21  C   UNK     0      12.642  -2.945   7.280 +0.00 +0.00    +0.084 C 
UNBOUND: ATOM     22  C   UNK     0      11.628  -2.069   7.167 +0.00 +0.00    -0.082 C 
UNBOUND: ATOM     23  C   UNK     0      11.467  -1.271   5.898 +0.00 +0.00    +0.043 C 
UNBOUND: ATOM     24  C   UNK     0      10.594  -1.762   8.215 +0.00 +0.00    +0.043 C 
UNBOUND: ENDBRANCH  19  21
UNBOUND: ENDBRANCH  18  19
UNBOUND: ENDBRANCH   5  18
UNBOUND: TORSDOF 3
UNBOUND: TER
UNBOUND: ENDMDL
________________________________________________________________________________

DPF> ga_run 10                            # do this many hybrid GA-LS runs

centering ligand on specified point: 0.000 0.000 0.000
Furthest true ligand atom from "about" center is 7.084 Angstroms (maxrad).
Number of requested GA dockings = 10 runs
Unbound model to be used is 'extended' [AutoDock 4.0 default].

	BEGINNING GENETIC ALGORITHM DOCKING 1 of 10
Run: 1 Seed: 464195316 264689047 [ Run 1 of 10 GA/GALS ]
Beginning LAMARCKIAN GENETIC ALGORITHM (LGA), with a maximum of 2500000 energy evaluations.

Final-Value: -11.005


	FINAL GENETIC ALGORITHM DOCKED STATE
	_______________________________________________


Detailed state:  trans 14.914 -2.992 5.002 quatxyzw -0.134501 0.899975 0.119763 -0.397003 center 0.000 0.000 0.000 ntor 3 -57.0729 169.8405 34.8592
State:	 14.914  -2.992   5.002  -0.147  0.981  0.130 -133.218    -57.07  169.84   34.86

DOCKED: MODEL        1
DOCKED: USER    Run = 1
DOCKED: USER    DPF = C:/Users/Admin/.mgltools/1.5.7/ws/dock.dpf
DOCKED: USER  
DOCKED: USER    Estimated Free Energy of Binding    =   -9.57 kcal/mol  [=(1)+(2)+(3)-(4)]
DOCKED: USER    Estimated Inhibition Constant, Ki   =   95.94 nM (nanomolar)  [Temperature = 298.15 K]
DOCKED: USER    
DOCKED: USER    (1) Final Intermolecular Energy     =  -10.29 kcal/mol
DOCKED: USER        vdW + Hbond + desolv Energy     =  -10.34 kcal/mol
DOCKED: USER        Electrostatic Energy            =   +0.05 kcal/mol
DOCKED: USER    (2) Final Total Internal Energy     =   -0.71 kcal/mol
DOCKED: USER    (3) Torsional Free Energy           =   +0.89 kcal/mol
DOCKED: USER    (4) Unbound System's Energy         =   -0.54 kcal/mol
DOCKED: USER    
DOCKED: USER    
DOCKED: USER    NEWDPF move DEC.pdbqt
DOCKED: USER    NEWDPF about 0.000000 0.000000 0.000000
DOCKED: USER    NEWDPF tran0 14.914097 -2.992355 5.001964
DOCKED: USER    NEWDPF quaternion0 -0.134501 0.899975 0.119763 -0.397003
DOCKED: USER    NEWDPF axisangle0 -0.146545 0.980560 0.130487 -133.218039
DOCKED: USER    NEWDPF quat0 -0.146545 0.980560 0.130487 -133.218039
DOCKED: USER    NEWDPF dihe0 -57.07 169.84 34.86 
DOCKED: USER  keepresnum = 1 
DOCKED: USER  
DOCKED: REMARK  3 active torsions:
DOCKED: REMARK  status: ('A' for Active; 'I' for Inactive)
DOCKED: REMARK    1  A    between atoms: O_2  and  C_7 
DOCKED: REMARK    2  A    between atoms: O_2  and  C_17 
DOCKED: REMARK    3  A    between atoms: C_17  and  C_20 
DOCKED: USER                              x       y       z     vdW  Elec       q    Type
DOCKED: USER                           _______ _______ _______ _____ _____    ______ ____
DOCKED: ROOT
DOCKED: ATOM      1  O   UNK     0      14.287  -0.886   5.756 -0.23 +0.13    -0.338 OA
DOCKED: ATOM      2  O   UNK     0      17.805  -1.972   8.742 -0.39 +0.07    -0.275 OA
DOCKED: ATOM      3  O   UNK     0      19.505  -2.471  10.193 -0.47 +0.16    -0.260 OA
DOCKED: ATOM      4  C   UNK     0      13.644  -1.063   4.478 -0.39 -0.03    +0.087 C 
DOCKED: ATOM      5  C   UNK     0      13.344  -2.551   4.203 -0.38 -0.05    +0.170 C 
DOCKED: ATOM      6  C   UNK     0      14.619  -3.386   4.246 -0.45 -0.02    +0.077 C 
DOCKED: ATOM      7  C   UNK     0      15.456  -3.011   5.431 -0.45 +0.01    -0.021 A 
DOCKED: ATOM      8  C   UNK     0      15.249  -1.798   6.103 -0.34 -0.03    +0.079 A 
DOCKED: ATOM      9  C   UNK     0      14.509  -0.400   3.392 -0.35 -0.03    +0.049 C 
DOCKED: ATOM     10  C   UNK     0      12.321  -0.284   4.570 -0.46 -0.01    +0.049 C 
DOCKED: ATOM     11  C   UNK     0      16.479  -3.872   5.859 -0.44 -0.01    +0.024 A 
DOCKED: ATOM     12  C   UNK     0      16.030  -1.465   7.211 -0.25 -0.02    +0.075 A 
DOCKED: ATOM     13  C   UNK     0      17.271  -3.540   6.961 -0.49 +0.00    -0.001 A 
DOCKED: ATOM     14  C   UNK     0      17.032  -2.341   7.623 -0.41 -0.02    +0.092 A 
DOCKED: ATOM     15  C   UNK     0      18.336  -4.405   7.440 -0.50 -0.01    +0.020 A 
DOCKED: ATOM     16  C   UNK     0      19.066  -4.048   8.500 -0.45 -0.04    +0.083 A 
DOCKED: ATOM     17  C   UNK     0      18.829  -2.784   9.220 -0.35 -0.13    +0.288 A 
DOCKED: ENDROOT
DOCKED: BRANCH   5  18
DOCKED: ATOM     18  O   UNK     0      12.714  -2.714   2.937 -0.34 +0.11    -0.309 OA
DOCKED: BRANCH  18  19
DOCKED: ATOM     19  C   UNK     0      11.774  -3.696   2.872 -0.35 -0.07    +0.283 C 
DOCKED: ATOM     20  O   UNK     0      11.358  -4.239   1.862 -0.47 +0.06    -0.260 OA
DOCKED: BRANCH  19  21
DOCKED: ATOM     21  C   UNK     0      11.331  -3.975   4.259 -0.50 -0.02    +0.084 C 
DOCKED: ATOM     22  C   UNK     0      10.112  -4.423   4.612 -0.60 +0.02    -0.082 C 
DOCKED: ATOM     23  C   UNK     0       9.798  -4.666   6.066 -0.65 -0.01    +0.043 C 
DOCKED: ATOM     24  C   UNK     0       8.976  -4.743   3.681 -0.64 -0.01    +0.043 C 
DOCKED: ENDBRANCH  19  21
DOCKED: ENDBRANCH  18  19
DOCKED: ENDBRANCH   5  18
DOCKED: TORSDOF 3
DOCKED: TER
DOCKED: ENDMDL
________________________________________________________________________________


	BEGINNING GENETIC ALGORITHM DOCKING 2 of 10
Run: 2 Seed: 354373466 424284413 [ Run 2 of 10 GA/GALS ]
Beginning LAMARCKIAN GENETIC ALGORITHM (LGA), with a maximum of 2500000 energy evaluations.

Final-Value: -11.034


	FINAL GENETIC ALGORITHM DOCKED STATE
	_______________________________________________


Detailed state:  trans 14.934 -2.990 4.933 quatxyzw -0.143748 0.891663 0.135965 -0.407170 center 0.000 0.000 0.000 ntor 3 -44.4369 173.0268 37.8731
State:	 14.934  -2.990   4.933  -0.157  0.976  0.149 -131.946    -44.44  173.03   37.87

DOCKED: MODEL        2
DOCKED: USER    Run = 2
DOCKED: USER    DPF = C:/Users/Admin/.mgltools/1.5.7/ws/dock.dpf
DOCKED: USER  
DOCKED: USER    Estimated Free Energy of Binding    =   -9.60 kcal/mol  [=(1)+(2)+(3)-(4)]
DOCKED: USER    Estimated Inhibition Constant, Ki   =   91.32 nM (nanomolar)  [Temperature = 298.15 K]
DOCKED: USER    
DOCKED: USER    (1) Final Intermolecular Energy     =  -10.34 kcal/mol
DOCKED: USER        vdW + Hbond + desolv Energy     =  -10.38 kcal/mol
DOCKED: USER        Electrostatic Energy            =   +0.05 kcal/mol
DOCKED: USER    (2) Final Total Internal Energy     =   -0.70 kcal/mol
DOCKED: USER    (3) Torsional Free Energy           =   +0.89 kcal/mol
DOCKED: USER    (4) Unbound System's Energy         =   -0.54 kcal/mol
DOCKED: USER    
DOCKED: USER    
DOCKED: USER    NEWDPF move DEC.pdbqt
DOCKED: USER    NEWDPF about 0.000000 0.000000 0.000000
DOCKED: USER    NEWDPF tran0 14.934435 -2.989802 4.933494
DOCKED: USER    NEWDPF quaternion0 -0.143748 0.891663 0.135965 -0.407170
DOCKED: USER    NEWDPF axisangle0 -0.157385 0.976253 0.148864 -131.945664
DOCKED: USER    NEWDPF quat0 -0.157385 0.976253 0.148864 -131.945664
DOCKED: USER    NEWDPF dihe0 -44.44 173.03 37.87 
DOCKED: USER  keepresnum = 1 
DOCKED: USER  
DOCKED: REMARK  3 active torsions:
DOCKED: REMARK  status: ('A' for Active; 'I' for Inactive)
DOCKED: REMARK    1  A    between atoms: O_2  and  C_7 
DOCKED: REMARK    2  A    between atoms: O_2  and  C_17 
DOCKED: REMARK    3  A    between atoms: C_17  and  C_20 
DOCKED: USER                              x       y       z     vdW  Elec       q    Type
DOCKED: USER                           _______ _______ _______ _____ _____    ______ ____
DOCKED: ROOT
DOCKED: ATOM      1  O   UNK     0      14.229  -0.923   5.727 -0.23 +0.13    -0.338 OA
DOCKED: ATOM      2  O   UNK     0      17.710  -1.987   8.765 -0.40 +0.07    -0.275 OA
DOCKED: ATOM      3  O   UNK     0      19.391  -2.475  10.241 -0.47 +0.16    -0.260 OA
DOCKED: ATOM      4  C   UNK     0      13.620  -1.085   4.431 -0.39 -0.03    +0.087 C 
DOCKED: ATOM      5  C   UNK     0      13.370  -2.573   4.110 -0.38 -0.05    +0.170 C 
DOCKED: ATOM      6  C   UNK     0      14.668  -3.371   4.161 -0.44 -0.02    +0.077 C 
DOCKED: ATOM      7  C   UNK     0      15.466  -3.004   5.374 -0.45 +0.01    -0.021 A 
DOCKED: ATOM      8  C   UNK     0      15.209  -1.816   6.073 -0.34 -0.03    +0.079 A 
DOCKED: ATOM      9  C   UNK     0      14.488  -0.368   3.383 -0.35 -0.03    +0.049 C 
DOCKED: ATOM     10  C   UNK     0      12.273  -0.347   4.513 -0.47 -0.01    +0.049 C 
DOCKED: ATOM     11  C   UNK     0      16.505  -3.846   5.803 -0.43 -0.01    +0.024 A 
DOCKED: ATOM     12  C   UNK     0      15.955  -1.491   7.207 -0.24 -0.02    +0.075 A 
DOCKED: ATOM     13  C   UNK     0      17.262  -3.522   6.932 -0.49 +0.00    -0.001 A 
DOCKED: ATOM     14  C   UNK     0      16.973  -2.348   7.619 -0.40 -0.02    +0.092 A 
DOCKED: ATOM     15  C   UNK     0      18.341  -4.368   7.412 -0.50 -0.01    +0.020 A 
DOCKED: ATOM     16  C   UNK     0      19.037  -4.018   8.498 -0.46 -0.04    +0.083 A 
DOCKED: ATOM     17  C   UNK     0      18.746  -2.781   9.245 -0.35 -0.13    +0.288 A 
DOCKED: ENDROOT
DOCKED: BRANCH   5  18
DOCKED: ATOM     18  O   UNK     0      12.774  -2.720   2.827 -0.35 +0.11    -0.309 OA
DOCKED: BRANCH  18  19
DOCKED: ATOM     19  C   UNK     0      11.819  -3.685   2.731 -0.36 -0.07    +0.283 C 
DOCKED: ATOM     20  O   UNK     0      11.460  -4.255   1.713 -0.49 +0.06    -0.260 OA
DOCKED: BRANCH  19  21
DOCKED: ATOM     21  C   UNK     0      11.276  -3.906   4.092 -0.50 -0.02    +0.084 C 
DOCKED: ATOM     22  C   UNK     0      10.124  -4.538   4.379 -0.59 +0.02    -0.082 C 
DOCKED: ATOM     23  C   UNK     0       9.693  -4.692   5.815 -0.66 -0.01    +0.043 C 
DOCKED: ATOM     24  C   UNK     0       9.175  -5.154   3.389 -0.66 -0.01    +0.043 C 
DOCKED: ENDBRANCH  19  21
DOCKED: ENDBRANCH  18  19
DOCKED: ENDBRANCH   5  18
DOCKED: TORSDOF 3
DOCKED: TER
DOCKED: ENDMDL
________________________________________________________________________________


	BEGINNING GENETIC ALGORITHM DOCKING 3 of 10
Run: 3 Seed: 1795615669 771817439 [ Run 3 of 10 GA/GALS ]
Beginning LAMARCKIAN GENETIC ALGORITHM (LGA), with a maximum of 2500000 energy evaluations.

Final-Value: -11.028


	FINAL GENETIC ALGORITHM DOCKED STATE
	_______________________________________________


Detailed state:  trans 15.040 -3.079 5.030 quatxyzw -0.140648 0.895321 0.114674 -0.406778 center 0.000 0.000 0.000 ntor 3 -38.3751 168.8722 42.7962
State:	 15.040  -3.079   5.030  -0.154  0.980  0.126 -131.995    -38.38  168.87   42.80

DOCKED: MODEL        3
DOCKED: USER    Run = 3
DOCKED: USER    DPF = C:/Users/Admin/.mgltools/1.5.7/ws/dock.dpf
DOCKED: USER  
DOCKED: USER    Estimated Free Energy of Binding    =   -9.60 kcal/mol  [=(1)+(2)+(3)-(4)]
DOCKED: USER    Estimated Inhibition Constant, Ki   =   92.25 nM (nanomolar)  [Temperature = 298.15 K]
DOCKED: USER    
DOCKED: USER    (1) Final Intermolecular Energy     =  -10.32 kcal/mol
DOCKED: USER        vdW + Hbond + desolv Energy     =  -10.37 kcal/mol
DOCKED: USER        Electrostatic Energy            =   +0.04 kcal/mol
DOCKED: USER    (2) Final Total Internal Energy     =   -0.70 kcal/mol
DOCKED: USER    (3) Torsional Free Energy           =   +0.89 kcal/mol
DOCKED: USER    (4) Unbound System's Energy         =   -0.54 kcal/mol
DOCKED: USER    
DOCKED: USER    
DOCKED: USER    NEWDPF move DEC.pdbqt
DOCKED: USER    NEWDPF about 0.000000 0.000000 0.000000
DOCKED: USER    NEWDPF tran0 15.040095 -3.079334 5.030352
DOCKED: USER    NEWDPF quaternion0 -0.140648 0.895321 0.114674 -0.406778
DOCKED: USER    NEWDPF axisangle0 -0.153962 0.980071 0.125529 -131.994804
DOCKED: USER    NEWDPF quat0 -0.153962 0.980071 0.125529 -131.994804
DOCKED: USER    NEWDPF dihe0 -38.38 168.87 42.80 
DOCKED: USER  keepresnum = 1 
DOCKED: USER  
DOCKED: REMARK  3 active torsions:
DOCKED: REMARK  status: ('A' for Active; 'I' for Inactive)
DOCKED: REMARK    1  A    between atoms: O_2  and  C_7 
DOCKED: REMARK    2  A    between atoms: O_2  and  C_17 
DOCKED: REMARK    3  A    between atoms: C_17  and  C_20 
DOCKED: USER                              x       y       z     vdW  Elec       q    Type
DOCKED: USER                           _______ _______ _______ _____ _____    ______ ____
DOCKED: ROOT
DOCKED: ATOM      1  O   UNK     0      14.383  -0.969   5.747 -0.22 +0.13    -0.338 OA
DOCKED: ATOM      2  O   UNK     0      17.834  -2.003   8.828 -0.39 +0.08    -0.275 OA
DOCKED: ATOM      3  O   UNK     0      19.501  -2.477  10.325 -0.47 +0.17    -0.260 OA
DOCKED: ATOM      4  C   UNK     0      13.772  -1.164   4.456 -0.39 -0.03    +0.087 C 
DOCKED: ATOM      5  C   UNK     0      13.487  -2.656   4.189 -0.38 -0.05    +0.170 C 
DOCKED: ATOM      6  C   UNK     0      14.766  -3.483   4.271 -0.43 -0.02    +0.077 C 
DOCKED: ATOM      7  C   UNK     0      15.571  -3.090   5.473 -0.45 +0.01    -0.021 A 
DOCKED: ATOM      8  C   UNK     0      15.341  -1.872   6.127 -0.35 -0.03    +0.079 A 
DOCKED: ATOM      9  C   UNK     0      14.658  -0.506   3.385 -0.35 -0.03    +0.049 C 
DOCKED: ATOM     10  C   UNK     0      12.443  -0.391   4.508 -0.46 -0.01    +0.049 C 
DOCKED: ATOM     11  C   UNK     0      16.589  -3.941   5.934 -0.43 -0.01    +0.024 A 
DOCKED: ATOM     12  C   UNK     0      16.093  -1.523   7.250 -0.27 -0.02    +0.075 A 
DOCKED: ATOM     13  C   UNK     0      17.352  -3.593   7.051 -0.50 +0.00    -0.001 A 
DOCKED: ATOM     14  C   UNK     0      17.090  -2.389   7.695 -0.41 -0.02    +0.092 A 
DOCKED: ATOM     15  C   UNK     0      18.410  -4.447   7.564 -0.51 -0.01    +0.020 A 
DOCKED: ATOM     16  C   UNK     0      19.113  -4.074   8.638 -0.43 -0.04    +0.083 A 
DOCKED: ATOM     17  C   UNK     0      18.851  -2.804   9.339 -0.34 -0.14    +0.288 A 
DOCKED: ENDROOT
DOCKED: BRANCH   5  18
DOCKED: ATOM     18  O   UNK     0      12.889  -2.835   2.911 -0.35 +0.11    -0.309 OA
DOCKED: BRANCH  18  19
DOCKED: ATOM     19  C   UNK     0      11.842  -3.704   2.870 -0.36 -0.07    +0.283 C 
DOCKED: ATOM     20  O   UNK     0      11.390  -4.253   1.879 -0.48 +0.06    -0.260 OA
DOCKED: BRANCH  19  21
DOCKED: ATOM     21  C   UNK     0      11.333  -3.847   4.254 -0.50 -0.02    +0.084 C 
DOCKED: ATOM     22  C   UNK     0      10.189  -4.461   4.605 -0.59 +0.02    -0.082 C 
DOCKED: ATOM     23  C   UNK     0       9.794  -4.534   6.058 -0.65 -0.01    +0.043 C 
DOCKED: ATOM     24  C   UNK     0       9.217  -5.133   3.675 -0.67 -0.01    +0.043 C 
DOCKED: ENDBRANCH  19  21
DOCKED: ENDBRANCH  18  19
DOCKED: ENDBRANCH   5  18
DOCKED: TORSDOF 3
DOCKED: TER
DOCKED: ENDMDL
________________________________________________________________________________


	BEGINNING GENETIC ALGORITHM DOCKING 4 of 10
Run: 4 Seed: 532547322 596876934 [ Run 4 of 10 GA/GALS ]
Beginning LAMARCKIAN GENETIC ALGORITHM (LGA), with a maximum of 2500000 energy evaluations.

Final-Value: -11.014


	FINAL GENETIC ALGORITHM DOCKED STATE
	_______________________________________________


Detailed state:  trans 14.855 -2.938 5.015 quatxyzw 0.117857 -0.904891 -0.108507 0.394345 center 0.000 0.000 0.000 ntor 3 -50.5892 180.0000 26.2911
State:	 14.855  -2.938   5.015   0.128 -0.985 -0.118 133.550    -50.59  180.00   26.29

DOCKED: MODEL        4
DOCKED: USER    Run = 4
DOCKED: USER    DPF = C:/Users/Admin/.mgltools/1.5.7/ws/dock.dpf
DOCKED: USER  
DOCKED: USER    Estimated Free Energy of Binding    =   -9.58 kcal/mol  [=(1)+(2)+(3)-(4)]
DOCKED: USER    Estimated Inhibition Constant, Ki   =   94.48 nM (nanomolar)  [Temperature = 298.15 K]
DOCKED: USER    
DOCKED: USER    (1) Final Intermolecular Energy     =  -10.33 kcal/mol
DOCKED: USER        vdW + Hbond + desolv Energy     =  -10.38 kcal/mol
DOCKED: USER        Electrostatic Energy            =   +0.05 kcal/mol
DOCKED: USER    (2) Final Total Internal Energy     =   -0.68 kcal/mol
DOCKED: USER    (3) Torsional Free Energy           =   +0.89 kcal/mol
DOCKED: USER    (4) Unbound System's Energy         =   -0.54 kcal/mol
DOCKED: USER    
DOCKED: USER    
DOCKED: USER    NEWDPF move DEC.pdbqt
DOCKED: USER    NEWDPF about 0.000000 0.000000 0.000000
DOCKED: USER    NEWDPF tran0 14.854672 -2.937751 5.014971
DOCKED: USER    NEWDPF quaternion0 0.117857 -0.904891 -0.108507 0.394345
DOCKED: USER    NEWDPF axisangle0 0.128250 -0.984688 -0.118075 133.549752
DOCKED: USER    NEWDPF quat0 0.128250 -0.984688 -0.118075 133.549752
DOCKED: USER    NEWDPF dihe0 -50.59 180.00 26.29 
DOCKED: USER  keepresnum = 1 
DOCKED: USER  
DOCKED: REMARK  3 active torsions:
DOCKED: REMARK  status: ('A' for Active; 'I' for Inactive)
DOCKED: REMARK    1  A    between atoms: O_2  and  C_7 
DOCKED: REMARK    2  A    between atoms: O_2  and  C_17 
DOCKED: REMARK    3  A    between atoms: C_17  and  C_20 
DOCKED: USER                              x       y       z     vdW  Elec       q    Type
DOCKED: USER                           _______ _______ _______ _____ _____    ______ ____
DOCKED: ROOT
DOCKED: ATOM      1  O   UNK     0      14.319  -0.802   5.755 -0.23 +0.13    -0.338 OA
DOCKED: ATOM      2  O   UNK     0      17.820  -2.000   8.718 -0.40 +0.07    -0.275 OA
DOCKED: ATOM      3  O   UNK     0      19.513  -2.553  10.157 -0.45 +0.17    -0.260 OA
DOCKED: ATOM      4  C   UNK     0      13.657  -0.965   4.486 -0.38 -0.03    +0.087 C 
DOCKED: ATOM      5  C   UNK     0      13.296  -2.442   4.227 -0.37 -0.05    +0.170 C 
DOCKED: ATOM      6  C   UNK     0      14.537  -3.326   4.265 -0.46 -0.02    +0.077 C 
DOCKED: ATOM      7  C   UNK     0      15.399  -2.974   5.439 -0.44 +0.01    -0.021 A 
DOCKED: ATOM      8  C   UNK     0      15.247  -1.748   6.102 -0.34 -0.03    +0.079 A 
DOCKED: ATOM      9  C   UNK     0      14.536  -0.345   3.386 -0.35 -0.03    +0.049 C 
DOCKED: ATOM     10  C   UNK     0      12.367  -0.133   4.583 -0.45 -0.01    +0.049 C 
DOCKED: ATOM     11  C   UNK     0      16.392  -3.871   5.865 -0.44 -0.01    +0.024 A 
DOCKED: ATOM     12  C   UNK     0      16.051  -1.437   7.200 -0.26 -0.02    +0.075 A 
DOCKED: ATOM     13  C   UNK     0      17.207  -3.562   6.957 -0.49 +0.00    -0.001 A 
DOCKED: ATOM     14  C   UNK     0      17.022  -2.348   7.610 -0.41 -0.02    +0.092 A 
DOCKED: ATOM     15  C   UNK     0      18.242  -4.464   7.433 -0.50 -0.01    +0.020 A 
DOCKED: ATOM     16  C   UNK     0      18.996  -4.127   8.483 -0.48 -0.04    +0.083 A 
DOCKED: ATOM     17  C   UNK     0      18.816  -2.847   9.194 -0.35 -0.14    +0.288 A 
DOCKED: ENDROOT
DOCKED: BRANCH   5  18
DOCKED: ATOM     18  O   UNK     0      12.647  -2.590   2.969 -0.33 +0.11    -0.309 OA
DOCKED: BRANCH  18  19
DOCKED: ATOM     19  C   UNK     0      11.800  -3.651   2.867 -0.35 -0.07    +0.283 C 
DOCKED: ATOM     20  O   UNK     0      11.541  -4.280   1.855 -0.48 +0.06    -0.260 OA
DOCKED: BRANCH  19  21
DOCKED: ATOM     21  C   UNK     0      11.231  -3.892   4.214 -0.50 -0.02    +0.084 C 
DOCKED: ATOM     22  C   UNK     0      10.076  -4.533   4.470 -0.59 +0.02    -0.082 C 
DOCKED: ATOM     23  C   UNK     0       9.617  -4.708   5.895 -0.66 -0.01    +0.043 C 
DOCKED: ATOM     24  C   UNK     0       9.151  -5.141   3.452 -0.66 -0.01    +0.043 C 
DOCKED: ENDBRANCH  19  21
DOCKED: ENDBRANCH  18  19
DOCKED: ENDBRANCH   5  18
DOCKED: TORSDOF 3
DOCKED: TER
DOCKED: ENDMDL
________________________________________________________________________________


	BEGINNING GENETIC ALGORITHM DOCKING 5 of 10
Run: 5 Seed: 1042080510 1357656192 [ Run 5 of 10 GA/GALS ]
Beginning LAMARCKIAN GENETIC ALGORITHM (LGA), with a maximum of 2500000 energy evaluations.

Final-Value: -11.029


	FINAL GENETIC ALGORITHM DOCKED STATE
	_______________________________________________


Detailed state:  trans 15.231 -3.182 5.126 quatxyzw 0.141775 -0.891961 -0.094450 0.418790 center 0.000 0.000 0.000 ntor 3 -41.3420 164.0262 48.8008
State:	 15.231  -3.182   5.126   0.156 -0.982 -0.104 130.484    -41.34  164.03   48.80

DOCKED: MODEL        5
DOCKED: USER    Run = 5
DOCKED: USER    DPF = C:/Users/Admin/.mgltools/1.5.7/ws/dock.dpf
DOCKED: USER  
DOCKED: USER    Estimated Free Energy of Binding    =   -9.60 kcal/mol  [=(1)+(2)+(3)-(4)]
DOCKED: USER    Estimated Inhibition Constant, Ki   =   92.13 nM (nanomolar)  [Temperature = 298.15 K]
DOCKED: USER    
DOCKED: USER    (1) Final Intermolecular Energy     =  -10.31 kcal/mol
DOCKED: USER        vdW + Hbond + desolv Energy     =  -10.35 kcal/mol
DOCKED: USER        Electrostatic Energy            =   +0.04 kcal/mol
DOCKED: USER    (2) Final Total Internal Energy     =   -0.71 kcal/mol
DOCKED: USER    (3) Torsional Free Energy           =   +0.89 kcal/mol
DOCKED: USER    (4) Unbound System's Energy         =   -0.54 kcal/mol
DOCKED: USER    
DOCKED: USER    
DOCKED: USER    NEWDPF move DEC.pdbqt
DOCKED: USER    NEWDPF about 0.000000 0.000000 0.000000
DOCKED: USER    NEWDPF tran0 15.231424 -3.182155 5.126411
DOCKED: USER    NEWDPF quaternion0 0.141775 -0.891961 -0.094450 0.418790
DOCKED: USER    NEWDPF axisangle0 0.156125 -0.982246 -0.104010 130.483604
DOCKED: USER    NEWDPF quat0 0.156125 -0.982246 -0.104010 130.483604
DOCKED: USER    NEWDPF dihe0 -41.34 164.03 48.80 
DOCKED: USER  keepresnum = 1 
DOCKED: USER  
DOCKED: REMARK  3 active torsions:
DOCKED: REMARK  status: ('A' for Active; 'I' for Inactive)
DOCKED: REMARK    1  A    between atoms: O_2  and  C_7 
DOCKED: REMARK    2  A    between atoms: O_2  and  C_17 
DOCKED: REMARK    3  A    between atoms: C_17  and  C_20 
DOCKED: USER                              x       y       z     vdW  Elec       q    Type
DOCKED: USER                           _______ _______ _______ _____ _____    ______ ____
DOCKED: ROOT
DOCKED: ATOM      1  O   UNK     0      14.589  -1.039   5.753 -0.21 +0.13    -0.338 OA
DOCKED: ATOM      2  O   UNK     0      17.928  -2.025   8.970 -0.39 +0.08    -0.275 OA
DOCKED: ATOM      3  O   UNK     0      19.542  -2.475  10.532 -0.46 +0.17    -0.260 OA
DOCKED: ATOM      4  C   UNK     0      14.014  -1.267   4.452 -0.39 -0.03    +0.087 C 
DOCKED: ATOM      5  C   UNK     0      13.712  -2.763   4.225 -0.38 -0.05    +0.170 C 
DOCKED: ATOM      6  C   UNK     0      14.973  -3.606   4.373 -0.43 -0.02    +0.077 C 
DOCKED: ATOM      7  C   UNK     0      15.749  -3.186   5.585 -0.45 +0.01    -0.021 A 
DOCKED: ATOM      8  C   UNK     0      15.520  -1.944   6.191 -0.36 -0.03    +0.079 A 
DOCKED: ATOM      9  C   UNK     0      14.942  -0.659   3.387 -0.37 -0.02    +0.049 C 
DOCKED: ATOM     10  C   UNK     0      12.696  -0.472   4.438 -0.44 -0.02    +0.049 C 
DOCKED: ATOM     11  C   UNK     0      16.738  -4.037   6.105 -0.44 -0.01    +0.024 A 
DOCKED: ATOM     12  C   UNK     0      16.244  -1.570   7.325 -0.31 -0.02    +0.075 A 
DOCKED: ATOM     13  C   UNK     0      17.473  -3.665   7.233 -0.51 +0.00    -0.001 A 
DOCKED: ATOM     14  C   UNK     0      17.212  -2.436   7.828 -0.43 -0.02    +0.092 A 
DOCKED: ATOM     15  C   UNK     0      18.501  -4.517   7.805 -0.53 -0.01    +0.020 A 
DOCKED: ATOM     16  C   UNK     0      19.177  -4.121   8.887 -0.38 -0.05    +0.083 A 
DOCKED: ATOM     17  C   UNK     0      18.915  -2.824   9.538 -0.32 -0.15    +0.288 A 
DOCKED: ENDROOT
DOCKED: BRANCH   5  18
DOCKED: ATOM     18  O   UNK     0      13.149  -2.975   2.935 -0.35 +0.10    -0.309 OA
DOCKED: BRANCH  18  19
DOCKED: ATOM     19  C   UNK     0      12.014  -3.725   2.907 -0.33 -0.07    +0.283 C 
DOCKED: ATOM     20  O   UNK     0      11.499  -4.230   1.923 -0.47 +0.06    -0.260 OA
DOCKED: BRANCH  19  21
DOCKED: ATOM     21  C   UNK     0      11.501  -3.802   4.296 -0.49 -0.02    +0.084 C 
DOCKED: ATOM     22  C   UNK     0      10.278  -4.233   4.653 -0.59 +0.02    -0.082 C 
DOCKED: ATOM     23  C   UNK     0       9.889  -4.258   6.109 -0.65 -0.01    +0.043 C 
DOCKED: ATOM     24  C   UNK     0       9.205  -4.734   3.726 -0.66 -0.01    +0.043 C 
DOCKED: ENDBRANCH  19  21
DOCKED: ENDBRANCH  18  19
DOCKED: ENDBRANCH   5  18
DOCKED: TORSDOF 3
DOCKED: TER
DOCKED: ENDMDL
________________________________________________________________________________


	BEGINNING GENETIC ALGORITHM DOCKING 6 of 10
Run: 6 Seed: 2040536072 809843250 [ Run 6 of 10 GA/GALS ]
Beginning LAMARCKIAN GENETIC ALGORITHM (LGA), with a maximum of 2500000 energy evaluations.

Final-Value: -11.006


	FINAL GENETIC ALGORITHM DOCKED STATE
	_______________________________________________


Detailed state:  trans 14.847 -2.997 5.018 quatxyzw 0.129999 -0.902895 -0.113104 0.393813 center 0.000 0.000 0.000 ntor 3 -62.5319 172.5053 30.3422
State:	 14.847  -2.997   5.018   0.141 -0.982 -0.123 133.616    -62.53  172.51   30.34

DOCKED: MODEL        6
DOCKED: USER    Run = 6
DOCKED: USER    DPF = C:/Users/Admin/.mgltools/1.5.7/ws/dock.dpf
DOCKED: USER  
DOCKED: USER    Estimated Free Energy of Binding    =   -9.58 kcal/mol  [=(1)+(2)+(3)-(4)]
DOCKED: USER    Estimated Inhibition Constant, Ki   =   95.69 nM (nanomolar)  [Temperature = 298.15 K]
DOCKED: USER    
DOCKED: USER    (1) Final Intermolecular Energy     =  -10.29 kcal/mol
DOCKED: USER        vdW + Hbond + desolv Energy     =  -10.34 kcal/mol
DOCKED: USER        Electrostatic Energy            =   +0.05 kcal/mol
DOCKED: USER    (2) Final Total Internal Energy     =   -0.71 kcal/mol
DOCKED: USER    (3) Torsional Free Energy           =   +0.89 kcal/mol
DOCKED: USER    (4) Unbound System's Energy         =   -0.54 kcal/mol
DOCKED: USER    
DOCKED: USER    
DOCKED: USER    NEWDPF move DEC.pdbqt
DOCKED: USER    NEWDPF about 0.000000 0.000000 0.000000
DOCKED: USER    NEWDPF tran0 14.846642 -2.997430 5.018048
DOCKED: USER    NEWDPF quaternion0 0.129999 -0.902895 -0.113104 0.393813
DOCKED: USER    NEWDPF axisangle0 0.141428 -0.982272 -0.123047 133.616041
DOCKED: USER    NEWDPF quat0 0.141428 -0.982272 -0.123047 133.616041
DOCKED: USER    NEWDPF dihe0 -62.53 172.51 30.34 
DOCKED: USER  keepresnum = 1 
DOCKED: USER  
DOCKED: REMARK  3 active torsions:
DOCKED: REMARK  status: ('A' for Active; 'I' for Inactive)
DOCKED: REMARK    1  A    between atoms: O_2  and  C_7 
DOCKED: REMARK    2  A    between atoms: O_2  and  C_17 
DOCKED: REMARK    3  A    between atoms: C_17  and  C_20 
DOCKED: USER                              x       y       z     vdW  Elec       q    Type
DOCKED: USER                           _______ _______ _______ _____ _____    ______ ____
DOCKED: ROOT
DOCKED: ATOM      1  O   UNK     0      14.254  -0.875   5.755 -0.23 +0.13    -0.338 OA
DOCKED: ATOM      2  O   UNK     0      17.779  -1.979   8.726 -0.40 +0.07    -0.275 OA
DOCKED: ATOM      3  O   UNK     0      19.483  -2.487  10.170 -0.47 +0.16    -0.260 OA
DOCKED: ATOM      4  C   UNK     0      13.599  -1.057   4.484 -0.39 -0.03    +0.087 C 
DOCKED: ATOM      5  C   UNK     0      13.277  -2.543   4.226 -0.38 -0.05    +0.170 C 
DOCKED: ATOM      6  C   UNK     0      14.541  -3.395   4.268 -0.45 -0.02    +0.077 C 
DOCKED: ATOM      7  C   UNK     0      15.391  -3.019   5.443 -0.45 +0.01    -0.021 A 
DOCKED: ATOM      8  C   UNK     0      15.205  -1.797   6.105 -0.33 -0.03    +0.079 A 
DOCKED: ATOM      9  C   UNK     0      14.464  -0.416   3.386 -0.35 -0.03    +0.049 C 
DOCKED: ATOM     10  C   UNK     0      12.287  -0.259   4.578 -0.46 -0.01    +0.049 C 
DOCKED: ATOM     11  C   UNK     0      16.406  -3.889   5.873 -0.44 -0.01    +0.024 A 
DOCKED: ATOM     12  C   UNK     0      15.999  -1.464   7.204 -0.24 -0.02    +0.075 A 
DOCKED: ATOM     13  C   UNK     0      17.210  -3.558   6.965 -0.49 +0.00    -0.001 A 
DOCKED: ATOM     14  C   UNK     0      16.992  -2.349   7.617 -0.41 -0.02    +0.092 A 
DOCKED: ATOM     15  C   UNK     0      18.267  -4.432   7.445 -0.50 -0.01    +0.020 A 
DOCKED: ATOM     16  C   UNK     0      19.010  -4.074   8.496 -0.47 -0.04    +0.083 A 
DOCKED: ATOM     17  C   UNK     0      18.795  -2.800   9.205 -0.35 -0.13    +0.288 A 
DOCKED: ENDROOT
DOCKED: BRANCH   5  18
DOCKED: ATOM     18  O   UNK     0      12.635  -2.710   2.967 -0.34 +0.10    -0.309 OA
DOCKED: BRANCH  18  19
DOCKED: ATOM     19  C   UNK     0      11.751  -3.742   2.891 -0.35 -0.07    +0.283 C 
DOCKED: ATOM     20  O   UNK     0      11.383  -4.312   1.877 -0.47 +0.06    -0.260 OA
DOCKED: BRANCH  19  21
DOCKED: ATOM     21  C   UNK     0      11.298  -4.037   4.271 -0.50 -0.02    +0.084 C 
DOCKED: ATOM     22  C   UNK     0      10.065  -4.451   4.616 -0.60 +0.02    -0.082 C 
DOCKED: ATOM     23  C   UNK     0       9.743  -4.715   6.064 -0.65 -0.01    +0.043 C 
DOCKED: ATOM     24  C   UNK     0       8.918  -4.709   3.678 -0.64 -0.01    +0.043 C 
DOCKED: ENDBRANCH  19  21
DOCKED: ENDBRANCH  18  19
DOCKED: ENDBRANCH   5  18
DOCKED: TORSDOF 3
DOCKED: TER
DOCKED: ENDMDL
________________________________________________________________________________


	BEGINNING GENETIC ALGORITHM DOCKING 7 of 10
Run: 7 Seed: 1324016776 224098661 [ Run 7 of 10 GA/GALS ]
Beginning LAMARCKIAN GENETIC ALGORITHM (LGA), with a maximum of 2500000 energy evaluations.

Final-Value: -11.027


	FINAL GENETIC ALGORITHM DOCKED STATE
	_______________________________________________


Detailed state:  trans 15.186 -3.102 5.104 quatxyzw -0.135201 0.893915 0.095501 -0.416553 center 0.000 0.000 0.000 ntor 3 -35.7489 168.4142 44.6696
State:	 15.186  -3.102   5.104  -0.149  0.983  0.105 -130.766    -35.75  168.41   44.67

DOCKED: MODEL        7
DOCKED: USER    Run = 7
DOCKED: USER    DPF = C:/Users/Admin/.mgltools/1.5.7/ws/dock.dpf
DOCKED: USER  
DOCKED: USER    Estimated Free Energy of Binding    =   -9.60 kcal/mol  [=(1)+(2)+(3)-(4)]
DOCKED: USER    Estimated Inhibition Constant, Ki   =   92.37 nM (nanomolar)  [Temperature = 298.15 K]
DOCKED: USER    
DOCKED: USER    (1) Final Intermolecular Energy     =  -10.32 kcal/mol
DOCKED: USER        vdW + Hbond + desolv Energy     =  -10.37 kcal/mol
DOCKED: USER        Electrostatic Energy            =   +0.04 kcal/mol
DOCKED: USER    (2) Final Total Internal Energy     =   -0.70 kcal/mol
DOCKED: USER    (3) Torsional Free Energy           =   +0.89 kcal/mol
DOCKED: USER    (4) Unbound System's Energy         =   -0.54 kcal/mol
DOCKED: USER    
DOCKED: USER    
DOCKED: USER    NEWDPF move DEC.pdbqt
DOCKED: USER    NEWDPF about 0.000000 0.000000 0.000000
DOCKED: USER    NEWDPF tran0 15.186225 -3.102393 5.104429
DOCKED: USER    NEWDPF quaternion0 -0.135201 0.893915 0.095501 -0.416553
DOCKED: USER    NEWDPF axisangle0 -0.148717 0.983284 0.105049 -130.765662
DOCKED: USER    NEWDPF quat0 -0.148717 0.983284 0.105049 -130.765662
DOCKED: USER    NEWDPF dihe0 -35.75 168.41 44.67 
DOCKED: USER  keepresnum = 1 
DOCKED: USER  
DOCKED: REMARK  3 active torsions:
DOCKED: REMARK  status: ('A' for Active; 'I' for Inactive)
DOCKED: REMARK    1  A    between atoms: O_2  and  C_7 
DOCKED: REMARK    2  A    between atoms: O_2  and  C_17 
DOCKED: REMARK    3  A    between atoms: C_17  and  C_20 
DOCKED: USER                              x       y       z     vdW  Elec       q    Type
DOCKED: USER                           _______ _______ _______ _____ _____    ______ ____
DOCKED: ROOT
DOCKED: ATOM      1  O   UNK     0      14.572  -0.957   5.749 -0.21 +0.13    -0.338 OA
DOCKED: ATOM      2  O   UNK     0      17.923  -1.999   8.936 -0.39 +0.08    -0.275 OA
DOCKED: ATOM      3  O   UNK     0      19.542  -2.477  10.483 -0.46 +0.17    -0.260 OA
DOCKED: ATOM      4  C   UNK     0      13.985  -1.169   4.451 -0.39 -0.03    +0.087 C 
DOCKED: ATOM      5  C   UNK     0      13.665  -2.660   4.217 -0.38 -0.05    +0.170 C 
DOCKED: ATOM      6  C   UNK     0      14.918  -3.519   4.350 -0.44 -0.02    +0.077 C 
DOCKED: ATOM      7  C   UNK     0      15.707  -3.115   5.559 -0.45 +0.01    -0.021 A 
DOCKED: ATOM      8  C   UNK     0      15.496  -1.874   6.175 -0.36 -0.03    +0.079 A 
DOCKED: ATOM      9  C   UNK     0      14.912  -0.565   3.383 -0.35 -0.02    +0.049 C 
DOCKED: ATOM     10  C   UNK     0      12.676  -0.361   4.451 -0.44 -0.02    +0.049 C 
DOCKED: ATOM     11  C   UNK     0      16.690  -3.980   6.066 -0.44 -0.01    +0.024 A 
DOCKED: ATOM     12  C   UNK     0      16.232  -1.515   7.306 -0.30 -0.02    +0.075 A 
DOCKED: ATOM     13  C   UNK     0      17.437  -3.623   7.191 -0.50 +0.00    -0.001 A 
DOCKED: ATOM     14  C   UNK     0      17.194  -2.395   7.797 -0.43 -0.02    +0.092 A 
DOCKED: ATOM     15  C   UNK     0      18.460  -4.491   7.751 -0.52 -0.01    +0.020 A 
DOCKED: ATOM     16  C   UNK     0      19.148  -4.108   8.830 -0.40 -0.05    +0.083 A 
DOCKED: ATOM     17  C   UNK     0      18.905  -2.813   9.492 -0.33 -0.15    +0.288 A 
DOCKED: ENDROOT
DOCKED: BRANCH   5  18
DOCKED: ATOM     18  O   UNK     0      13.090  -2.858   2.930 -0.35 +0.11    -0.309 OA
DOCKED: BRANCH  18  19
DOCKED: ATOM     19  C   UNK     0      11.997  -3.668   2.894 -0.34 -0.07    +0.283 C 
DOCKED: ATOM     20  O   UNK     0      11.536  -4.225   1.911 -0.48 +0.06    -0.260 OA
DOCKED: BRANCH  19  21
DOCKED: ATOM     21  C   UNK     0      11.452  -3.734   4.270 -0.49 -0.02    +0.084 C 
DOCKED: ATOM     22  C   UNK     0      10.290  -4.315   4.622 -0.58 +0.02    -0.082 C 
DOCKED: ATOM     23  C   UNK     0       9.858  -4.309   6.066 -0.66 -0.01    +0.043 C 
DOCKED: ATOM     24  C   UNK     0       9.333  -5.020   3.702 -0.66 -0.01    +0.043 C 
DOCKED: ENDBRANCH  19  21
DOCKED: ENDBRANCH  18  19
DOCKED: ENDBRANCH   5  18
DOCKED: TORSDOF 3
DOCKED: TER
DOCKED: ENDMDL
________________________________________________________________________________


	BEGINNING GENETIC ALGORITHM DOCKING 8 of 10
Run: 8 Seed: 1167949839 1490816412 [ Run 8 of 10 GA/GALS ]
Beginning LAMARCKIAN GENETIC ALGORITHM (LGA), with a maximum of 2500000 energy evaluations.

Final-Value: -11.012


	FINAL GENETIC ALGORITHM DOCKED STATE
	_______________________________________________


Detailed state:  trans 14.915 -3.038 4.776 quatxyzw -0.123282 0.889161 0.158757 -0.411085 center 0.000 0.000 0.000 ntor 3 -26.5138 -176.9258 35.1213
State:	 14.915  -3.038   4.776  -0.135  0.975  0.174 -131.454    -26.51 -176.93   35.12

DOCKED: MODEL        8
DOCKED: USER    Run = 8
DOCKED: USER    DPF = C:/Users/Admin/.mgltools/1.5.7/ws/dock.dpf
DOCKED: USER  
DOCKED: USER    Estimated Free Energy of Binding    =   -9.58 kcal/mol  [=(1)+(2)+(3)-(4)]
DOCKED: USER    Estimated Inhibition Constant, Ki   =   94.72 nM (nanomolar)  [Temperature = 298.15 K]
DOCKED: USER    
DOCKED: USER    (1) Final Intermolecular Energy     =  -10.33 kcal/mol
DOCKED: USER        vdW + Hbond + desolv Energy     =  -10.41 kcal/mol
DOCKED: USER        Electrostatic Energy            =   +0.08 kcal/mol
DOCKED: USER    (2) Final Total Internal Energy     =   -0.69 kcal/mol
DOCKED: USER    (3) Torsional Free Energy           =   +0.89 kcal/mol
DOCKED: USER    (4) Unbound System's Energy         =   -0.54 kcal/mol
DOCKED: USER    
DOCKED: USER    
DOCKED: USER    NEWDPF move DEC.pdbqt
DOCKED: USER    NEWDPF about 0.000000 0.000000 0.000000
DOCKED: USER    NEWDPF tran0 14.915481 -3.038133 4.776376
DOCKED: USER    NEWDPF quaternion0 -0.123282 0.889161 0.158757 -0.411085
DOCKED: USER    NEWDPF axisangle0 -0.135237 0.975388 0.174153 -131.453922
DOCKED: USER    NEWDPF quat0 -0.135237 0.975388 0.174153 -131.453922
DOCKED: USER    NEWDPF dihe0 -26.51 -176.93 35.12 
DOCKED: USER  keepresnum = 1 
DOCKED: USER  
DOCKED: REMARK  3 active torsions:
DOCKED: REMARK  status: ('A' for Active; 'I' for Inactive)
DOCKED: REMARK    1  A    between atoms: O_2  and  C_7 
DOCKED: REMARK    2  A    between atoms: O_2  and  C_17 
DOCKED: REMARK    3  A    between atoms: C_17  and  C_20 
DOCKED: USER                              x       y       z     vdW  Elec       q    Type
DOCKED: USER                           _______ _______ _______ _____ _____    ______ ____
DOCKED: ROOT
DOCKED: ATOM      1  O   UNK     0      14.250  -1.010   5.693 -0.22 +0.13    -0.338 OA
DOCKED: ATOM      2  O   UNK     0      17.718  -2.314   8.650 -0.44 +0.07    -0.275 OA
DOCKED: ATOM      3  O   UNK     0      19.394  -2.919  10.089 -0.42 +0.19    -0.260 OA
DOCKED: ATOM      4  C   UNK     0      13.635  -1.083   4.392 -0.39 -0.03    +0.087 C 
DOCKED: ATOM      5  C   UNK     0      13.357  -2.545   3.985 -0.38 -0.05    +0.170 C 
DOCKED: ATOM      6  C   UNK     0      14.640  -3.369   3.983 -0.40 -0.02    +0.077 C 
DOCKED: ATOM      7  C   UNK     0      15.448  -3.088   5.214 -0.46 +0.01    -0.021 A 
DOCKED: ATOM      8  C   UNK     0      15.214  -1.939   5.982 -0.34 -0.03    +0.079 A 
DOCKED: ATOM      9  C   UNK     0      14.514  -0.321   3.386 -0.35 -0.03    +0.049 C 
DOCKED: ATOM     10  C   UNK     0      12.302  -0.327   4.522 -0.47 -0.01    +0.049 C 
DOCKED: ATOM     11  C   UNK     0      16.473  -3.973   5.588 -0.43 -0.01    +0.024 A 
DOCKED: ATOM     12  C   UNK     0      15.969  -1.695   7.131 -0.31 -0.02    +0.075 A 
DOCKED: ATOM     13  C   UNK     0      17.238  -3.729   6.731 -0.47 +0.00    -0.001 A 
DOCKED: ATOM     14  C   UNK     0      16.972  -2.594   7.488 -0.42 -0.02    +0.092 A 
DOCKED: ATOM     15  C   UNK     0      18.303  -4.622   7.157 -0.48 -0.01    +0.020 A 
DOCKED: ATOM     16  C   UNK     0      19.007  -4.350   8.259 -0.48 -0.04    +0.083 A 
DOCKED: ATOM     17  C   UNK     0      18.741  -3.154   9.079 -0.34 -0.14    +0.288 A 
DOCKED: ENDROOT
DOCKED: BRANCH   5  18
DOCKED: ATOM     18  O   UNK     0      12.755  -2.605   2.697 -0.34 +0.12    -0.309 OA
DOCKED: BRANCH  18  19
DOCKED: ATOM     19  C   UNK     0      11.823  -3.583   2.530 -0.36 -0.07    +0.283 C 
DOCKED: ATOM     20  O   UNK     0      11.591  -4.199   1.503 -0.52 +0.06    -0.260 OA
DOCKED: BRANCH  19  21
DOCKED: ATOM     21  C   UNK     0      11.124  -3.753   3.826 -0.50 -0.02    +0.084 C 
DOCKED: ATOM     22  C   UNK     0      10.153  -4.649   4.076 -0.58 +0.02    -0.082 C 
DOCKED: ATOM     23  C   UNK     0       9.528  -4.712   5.447 -0.67 -0.01    +0.043 C 
DOCKED: ATOM     24  C   UNK     0       9.600  -5.657   3.108 -0.64 -0.01    +0.043 C 
DOCKED: ENDBRANCH  19  21
DOCKED: ENDBRANCH  18  19
DOCKED: ENDBRANCH   5  18
DOCKED: TORSDOF 3
DOCKED: TER
DOCKED: ENDMDL
________________________________________________________________________________


	BEGINNING GENETIC ALGORITHM DOCKING 9 of 10
Run: 9 Seed: 337351939 1043619251 [ Run 9 of 10 GA/GALS ]
Beginning LAMARCKIAN GENETIC ALGORITHM (LGA), with a maximum of 2500000 energy evaluations.

Final-Value: -11.015


	FINAL GENETIC ALGORITHM DOCKED STATE
	_______________________________________________


Detailed state:  trans 15.152 -2.993 5.134 quatxyzw 0.119739 -0.898794 -0.082671 0.413519 center 0.000 0.000 0.000 ntor 3 -36.2631 173.1588 37.8287
State:	 15.152  -2.993   5.134   0.132 -0.987 -0.091 131.148    -36.26  173.16   37.83

DOCKED: MODEL        9
DOCKED: USER    Run = 9
DOCKED: USER    DPF = C:/Users/Admin/.mgltools/1.5.7/ws/dock.dpf
DOCKED: USER  
DOCKED: USER    Estimated Free Energy of Binding    =   -9.59 kcal/mol  [=(1)+(2)+(3)-(4)]
DOCKED: USER    Estimated Inhibition Constant, Ki   =   94.20 nM (nanomolar)  [Temperature = 298.15 K]
DOCKED: USER    
DOCKED: USER    (1) Final Intermolecular Energy     =  -10.32 kcal/mol
DOCKED: USER        vdW + Hbond + desolv Energy     =  -10.37 kcal/mol
DOCKED: USER        Electrostatic Energy            =   +0.04 kcal/mol
DOCKED: USER    (2) Final Total Internal Energy     =   -0.69 kcal/mol
DOCKED: USER    (3) Torsional Free Energy           =   +0.89 kcal/mol
DOCKED: USER    (4) Unbound System's Energy         =   -0.54 kcal/mol
DOCKED: USER    
DOCKED: USER    
DOCKED: USER    NEWDPF move DEC.pdbqt
DOCKED: USER    NEWDPF about 0.000000 0.000000 0.000000
DOCKED: USER    NEWDPF tran0 15.151652 -2.993159 5.134103
DOCKED: USER    NEWDPF quaternion0 0.119739 -0.898794 -0.082671 0.413519
DOCKED: USER    NEWDPF axisangle0 0.131510 -0.987148 -0.090798 131.147796
DOCKED: USER    NEWDPF quat0 0.131510 -0.987148 -0.090798 131.147796
DOCKED: USER    NEWDPF dihe0 -36.26 173.16 37.83 
DOCKED: USER  keepresnum = 1 
DOCKED: USER  
DOCKED: REMARK  3 active torsions:
DOCKED: REMARK  status: ('A' for Active; 'I' for Inactive)
DOCKED: REMARK    1  A    between atoms: O_2  and  C_7 
DOCKED: REMARK    2  A    between atoms: O_2  and  C_17 
DOCKED: REMARK    3  A    between atoms: C_17  and  C_20 
DOCKED: USER                              x       y       z     vdW  Elec       q    Type
DOCKED: USER                           _______ _______ _______ _____ _____    ______ ____
DOCKED: ROOT
DOCKED: ATOM      1  O   UNK     0      14.627  -0.818   5.758 -0.22 +0.13    -0.338 OA
DOCKED: ATOM      2  O   UNK     0      17.964  -1.954   8.928 -0.39 +0.08    -0.275 OA
DOCKED: ATOM      3  O   UNK     0      19.578  -2.476  10.466 -0.47 +0.17    -0.260 OA
DOCKED: ATOM      4  C   UNK     0      14.021  -1.022   4.468 -0.38 -0.03    +0.087 C 
DOCKED: ATOM      5  C   UNK     0      13.641  -2.502   4.255 -0.37 -0.05    +0.170 C 
DOCKED: ATOM      6  C   UNK     0      14.860  -3.407   4.387 -0.46 -0.02    +0.077 C 
DOCKED: ATOM      7  C   UNK     0      15.675  -3.021   5.584 -0.45 +0.01    -0.021 A 
DOCKED: ATOM      8  C   UNK     0      15.519  -1.765   6.187 -0.37 -0.03    +0.079 A 
DOCKED: ATOM      9  C   UNK     0      14.961  -0.467   3.385 -0.35 -0.03    +0.049 C 
DOCKED: ATOM     10  C   UNK     0      12.744  -0.163   4.470 -0.43 -0.02    +0.049 C 
DOCKED: ATOM     11  C   UNK     0      16.629  -3.918   6.093 -0.44 -0.01    +0.024 A 
DOCKED: ATOM     12  C   UNK     0      16.278  -1.423   7.307 -0.30 -0.02    +0.075 A 
DOCKED: ATOM     13  C   UNK     0      17.400  -3.577   7.207 -0.50 +0.00    -0.001 A 
DOCKED: ATOM     14  C   UNK     0      17.210  -2.334   7.800 -0.43 -0.02    +0.092 A 
DOCKED: ATOM     15  C   UNK     0      18.393  -4.477   7.768 -0.52 -0.01    +0.020 A 
DOCKED: ATOM     16  C   UNK     0      19.105  -4.110   8.837 -0.42 -0.05    +0.083 A 
DOCKED: ATOM     17  C   UNK     0      18.919  -2.798   9.485 -0.33 -0.15    +0.288 A 
DOCKED: ENDROOT
DOCKED: BRANCH   5  18
DOCKED: ATOM     18  O   UNK     0      13.047  -2.692   2.975 -0.34 +0.11    -0.309 OA
DOCKED: BRANCH  18  19
DOCKED: ATOM     19  C   UNK     0      12.011  -3.574   2.934 -0.34 -0.08    +0.283 C 
DOCKED: ATOM     20  O   UNK     0      11.614  -4.187   1.957 -0.47 +0.06    -0.260 OA
DOCKED: BRANCH  19  21
DOCKED: ATOM     21  C   UNK     0      11.434  -3.639   4.298 -0.50 -0.02    +0.084 C 
DOCKED: ATOM     22  C   UNK     0      10.299  -4.278   4.635 -0.58 +0.02    -0.082 C 
DOCKED: ATOM     23  C   UNK     0       9.829  -4.263   6.067 -0.66 -0.01    +0.043 C 
DOCKED: ATOM     24  C   UNK     0       9.408  -5.059   3.709 -0.66 -0.01    +0.043 C 
DOCKED: ENDBRANCH  19  21
DOCKED: ENDBRANCH  18  19
DOCKED: ENDBRANCH   5  18
DOCKED: TORSDOF 3
DOCKED: TER
DOCKED: ENDMDL
________________________________________________________________________________


	BEGINNING GENETIC ALGORITHM DOCKING 10 of 10
Run: 10 Seed: 1845150877 959604721 [ Run 10 of 10 GA/GALS ]
Beginning LAMARCKIAN GENETIC ALGORITHM (LGA), with a maximum of 2500000 energy evaluations.

Final-Value: -11.025


	FINAL GENETIC ALGORITHM DOCKED STATE
	_______________________________________________


Detailed state:  trans 15.181 -2.982 5.072 quatxyzw 0.127654 -0.894226 -0.099398 0.417354 center 0.000 0.000 0.000 ntor 3 -28.9205 166.1732 45.6585
State:	 15.181  -2.982   5.072   0.140 -0.984 -0.109 130.665    -28.92  166.17   45.66

DOCKED: MODEL       10
DOCKED: USER    Run = 10
DOCKED: USER    DPF = C:/Users/Admin/.mgltools/1.5.7/ws/dock.dpf
DOCKED: USER  
DOCKED: USER    Estimated Free Energy of Binding    =   -9.59 kcal/mol  [=(1)+(2)+(3)-(4)]
DOCKED: USER    Estimated Inhibition Constant, Ki   =   92.64 nM (nanomolar)  [Temperature = 298.15 K]
DOCKED: USER    
DOCKED: USER    (1) Final Intermolecular Energy     =  -10.32 kcal/mol
DOCKED: USER        vdW + Hbond + desolv Energy     =  -10.37 kcal/mol
DOCKED: USER        Electrostatic Energy            =   +0.05 kcal/mol
DOCKED: USER    (2) Final Total Internal Energy     =   -0.70 kcal/mol
DOCKED: USER    (3) Torsional Free Energy           =   +0.89 kcal/mol
DOCKED: USER    (4) Unbound System's Energy         =   -0.54 kcal/mol
DOCKED: USER    
DOCKED: USER    
DOCKED: USER    NEWDPF move DEC.pdbqt
DOCKED: USER    NEWDPF about 0.000000 0.000000 0.000000
DOCKED: USER    NEWDPF tran0 15.180727 -2.981776 5.071977
DOCKED: USER    NEWDPF quaternion0 0.127654 -0.894226 -0.099398 0.417354
DOCKED: USER    NEWDPF axisangle0 0.140473 -0.984024 -0.109379 130.664684
DOCKED: USER    NEWDPF quat0 0.140473 -0.984024 -0.109379 130.664684
DOCKED: USER    NEWDPF dihe0 -28.92 166.17 45.66 
DOCKED: USER  keepresnum = 1 
DOCKED: USER  
DOCKED: REMARK  3 active torsions:
DOCKED: REMARK  status: ('A' for Active; 'I' for Inactive)
DOCKED: REMARK    1  A    between atoms: O_2  and  C_7 
DOCKED: REMARK    2  A    between atoms: O_2  and  C_17 
DOCKED: REMARK    3  A    between atoms: C_17  and  C_20 
DOCKED: USER                              x       y       z     vdW  Elec       q    Type
DOCKED: USER                           _______ _______ _______ _____ _____    ______ ____
DOCKED: ROOT
DOCKED: ATOM      1  O   UNK     0      14.590  -0.839   5.746 -0.21 +0.13    -0.338 OA
DOCKED: ATOM      2  O   UNK     0      17.934  -1.959   8.914 -0.39 +0.08    -0.275 OA
DOCKED: ATOM      3  O   UNK     0      19.550  -2.474  10.452 -0.46 +0.17    -0.260 OA
DOCKED: ATOM      4  C   UNK     0      13.999  -1.028   4.446 -0.38 -0.03    +0.087 C 
DOCKED: ATOM      5  C   UNK     0      13.663  -2.512   4.192 -0.38 -0.05    +0.170 C 
DOCKED: ATOM      6  C   UNK     0      14.907  -3.385   4.313 -0.47 -0.02    +0.077 C 
DOCKED: ATOM      7  C   UNK     0      15.702  -3.006   5.526 -0.45 +0.01    -0.021 A 
DOCKED: ATOM      8  C   UNK     0      15.504  -1.771   6.159 -0.37 -0.03    +0.079 A 
DOCKED: ATOM      9  C   UNK     0      14.931  -0.419   3.385 -0.34 -0.03    +0.049 C 
DOCKED: ATOM     10  C   UNK     0      12.699  -0.205   4.459 -0.43 -0.02    +0.049 C 
DOCKED: ATOM     11  C   UNK     0      16.677  -3.888   6.020 -0.43 -0.01    +0.024 A 
DOCKED: ATOM     12  C   UNK     0      16.246  -1.436   7.293 -0.29 -0.02    +0.075 A 
DOCKED: ATOM     13  C   UNK     0      17.429  -3.554   7.149 -0.50 +0.00    -0.001 A 
DOCKED: ATOM     14  C   UNK     0      17.199  -2.332   7.771 -0.43 -0.02    +0.092 A 
DOCKED: ATOM     15  C   UNK     0      18.443  -4.440   7.695 -0.52 -0.01    +0.020 A 
DOCKED: ATOM     16  C   UNK     0      19.136  -4.079   8.779 -0.41 -0.05    +0.083 A 
DOCKED: ATOM     17  C   UNK     0      18.908  -2.790   9.458 -0.33 -0.15    +0.288 A 
DOCKED: ENDROOT
DOCKED: BRANCH   5  18
DOCKED: ATOM     18  O   UNK     0      13.085  -2.686   2.904 -0.34 +0.11    -0.309 OA
DOCKED: BRANCH  18  19
DOCKED: ATOM     19  C   UNK     0      11.971  -3.467   2.862 -0.35 -0.08    +0.283 C 
DOCKED: ATOM     20  O   UNK     0      11.475  -3.975   1.869 -0.47 +0.06    -0.260 OA
DOCKED: BRANCH  19  21
DOCKED: ATOM     21  C   UNK     0      11.453  -3.573   4.246 -0.49 -0.02    +0.084 C 
DOCKED: ATOM     22  C   UNK     0      10.352  -4.249   4.618 -0.58 +0.02    -0.082 C 
DOCKED: ATOM     23  C   UNK     0       9.942  -4.273   6.068 -0.67 -0.01    +0.043 C 
DOCKED: ATOM     24  C   UNK     0       9.445  -5.039   3.715 -0.66 -0.01    +0.043 C 
DOCKED: ENDBRANCH  19  21
DOCKED: ENDBRANCH  18  19
DOCKED: ENDBRANCH   5  18
DOCKED: TORSDOF 3
DOCKED: TER
DOCKED: ENDMDL
________________________________________________________________________________

DPF> analysis                             # perform a ranked cluster analysis


		CLUSTER ANALYSIS OF CONFORMATIONS
		_________________________________

Number of conformations = 10

RMSD cluster analysis will be performed using the ligand atoms only (24 / 24 total atoms).

Outputting structurally similar clusters, ranked in order of increasing energy.


________________________________________________________________________________

Number of distinct conformational clusters found = 1,  out of 10 runs,
Using an rmsd-tolerance of 2.0 A


	CLUSTERING HISTOGRAM
	____________________

________________________________________________________________________________
     |           |     |           |     |                                    
Clus | Lowest    | Run | Mean      | Num | Histogram                          
-ter | Binding   |     | Binding   | in  |                                    
Rank | Energy    |     | Energy    | Clus|    5    10   15   20   25   30   35
_____|___________|_____|___________|_____|____:____|____:____|____:____|____:___
   1 |     -9.60 |   2 |     -9.59 |  10 |##########
_____|___________|_____|___________|_____|______________________________________


Number of multi-member conformational clusters found = 1, out of 10 runs.

	RMSD TABLE
	__________

_____________________________________________________________________
     |      |      |           |         |                 |
Rank | Sub- | Run  | Binding   | Cluster | Reference       | Grep
     | Rank |      | Energy    | RMSD    | RMSD            | Pattern
_____|______|______|___________|_________|_________________|___________
   1      1      2       -9.60      0.00     14.26           RANKING
   1      2      5       -9.60      0.41     14.54           RANKING
   1      3      3       -9.60      0.19     14.38           RANKING
   1      4      7       -9.60      0.34     14.50           RANKING
   1      5     10       -9.59      0.35     14.48           RANKING
   1      6      9       -9.59      0.36     14.50           RANKING
   1      7      4       -9.58      0.14     14.28           RANKING
   1      8      8       -9.58      0.31     14.23           RANKING
   1      9      6       -9.58      0.18     14.26           RANKING
   1     10      1       -9.57      0.16     14.29           RANKING
_______________________________________________________________________



	INFORMATION ENTROPY ANALYSIS FOR THIS CLUSTERING
	________________________________________________


Information entropy for this clustering = 0.00  (rmstol = 2.00 Angstrom)

_______________________________________________________________________


	STATISTICAL MECHANICAL ANALYSIS
	_______________________________


Partition function, Q =    10.16            at Temperature, T = 298.15 K
Free energy,        A ~ -1373.83 kcal/mol   at Temperature, T = 298.15 K
Internal energy,    U =    -9.59 kcal/mol   at Temperature, T = 298.15 K
Entropy,            S =     4.58 kcal/mol/K at Temperature, T = 298.15 K

_______________________________________________________________________


	LOWEST ENERGY DOCKED CONFORMATION from EACH CLUSTER
	___________________________________________________



Keeping original residue number (specified in the input PDBQ file) for outputting.

MODEL        2
USER    Run = 2
USER    Cluster Rank = 1
USER    Number of conformations in this cluster = 10
USER  
USER    RMSD from reference structure       = 14.262 A
USER  
USER    Estimated Free Energy of Binding    =   -9.60 kcal/mol  [=(1)+(2)+(3)-(4)]
USER    Estimated Inhibition Constant, Ki   =   91.32 nM (nanomolar)  [Temperature = 298.15 K]
USER    
USER    (1) Final Intermolecular Energy     =  -10.34 kcal/mol
USER        vdW + Hbond + desolv Energy     =  -10.38 kcal/mol
USER        Electrostatic Energy            =   +0.05 kcal/mol
USER    (2) Final Total Internal Energy     =   -0.70 kcal/mol
USER    (3) Torsional Free Energy           =   +0.89 kcal/mol
USER    (4) Unbound System's Energy         =   -0.54 kcal/mol
USER    
USER    
USER  
USER    DPF = C:/Users/Admin/.mgltools/1.5.7/ws/dock.dpf
USER    NEWDPF move	DEC.pdbqt
USER    NEWDPF about	0.000000 0.000000 0.000000
USER    NEWDPF tran0	14.934435 -2.989802 4.933494
USER    NEWDPF axisangle0	-0.157385 0.976253 0.148864 -131.945664
USER    NEWDPF quaternion0	-0.143748 0.891663 0.135965 -0.407170
USER    NEWDPF dihe0	-44.44 173.03 37.87 
USER  
USER                              x       y       z    vdW   Elec        q     RMS 
ATOM      1  O   UNK     0      14.229  -0.923   5.727 -0.23 +0.13    -0.338    14.262
ATOM      2  O   UNK     0      17.710  -1.987   8.765 -0.40 +0.07    -0.275    14.262
ATOM      3  O   UNK     0      19.391  -2.475  10.241 -0.47 +0.16    -0.260    14.262
ATOM      4  C   UNK     0      13.620  -1.085   4.431 -0.39 -0.03    +0.087    14.262
ATOM      5  C   UNK     0      13.370  -2.573   4.110 -0.38 -0.05    +0.170    14.262
ATOM      6  C   UNK     0      14.668  -3.371   4.161 -0.44 -0.02    +0.077    14.262
ATOM      7  C   UNK     0      15.466  -3.004   5.374 -0.45 +0.01    -0.021    14.262
ATOM      8  C   UNK     0      15.209  -1.816   6.073 -0.34 -0.03    +0.079    14.262
ATOM      9  C   UNK     0      14.488  -0.368   3.383 -0.35 -0.03    +0.049    14.262
ATOM     10  C   UNK     0      12.273  -0.347   4.513 -0.47 -0.01    +0.049    14.262
ATOM     11  C   UNK     0      16.505  -3.846   5.803 -0.43 -0.01    +0.024    14.262
ATOM     12  C   UNK     0      15.955  -1.491   7.207 -0.24 -0.02    +0.075    14.262
ATOM     13  C   UNK     0      17.262  -3.522   6.932 -0.49 +0.00    -0.001    14.262
ATOM     14  C   UNK     0      16.973  -2.348   7.619 -0.40 -0.02    +0.092    14.262
ATOM     15  C   UNK     0      18.341  -4.368   7.412 -0.50 -0.01    +0.020    14.262
ATOM     16  C   UNK     0      19.037  -4.018   8.498 -0.46 -0.04    +0.083    14.262
ATOM     17  C   UNK     0      18.746  -2.781   9.245 -0.35 -0.13    +0.288    14.262
ATOM     18  O   UNK     0      12.774  -2.720   2.827 -0.35 +0.11    -0.309    14.262
ATOM     19  C   UNK     0      11.819  -3.685   2.731 -0.36 -0.07    +0.283    14.262
ATOM     20  O   UNK     0      11.460  -4.255   1.713 -0.49 +0.06    -0.260    14.262
ATOM     21  C   UNK     0      11.276  -3.906   4.092 -0.50 -0.02    +0.084    14.262
ATOM     22  C   UNK     0      10.124  -4.538   4.379 -0.59 +0.02    -0.082    14.262
ATOM     23  C   UNK     0       9.693  -4.692   5.815 -0.66 -0.01    +0.043    14.262
ATOM     24  C   UNK     0       9.175  -5.154   3.389 -0.66 -0.01    +0.043    14.262
TER
ENDMDL


AVSFLD: # AVS field file
AVSFLD: #
AVSFLD: # Created by AutoDock
AVSFLD: #
AVSFLD: ndim=2           # number of dimensions in the field
AVSFLD: nspace=1         # number of physical coordinates
AVSFLD: veclen=7         # vector size
AVSFLD: dim1=24          # atoms
AVSFLD: dim2=1           # conformations
AVSFLD: data=Real       # data type (byte,integer,Real,double)
AVSFLD: field=uniform    # field coordinate layout
AVSFLD: label= x y z vdW Elec q RMS
AVSFLD: variable 1 file = C:/Users/Admin/.mgltools/1.5.7/ws/dock.dlg.pdb filetype = ascii offset = 5 stride = 12
AVSFLD: variable 2 file = C:/Users/Admin/.mgltools/1.5.7/ws/dock.dlg.pdb filetype = ascii offset = 6 stride = 12
AVSFLD: variable 3 file = C:/Users/Admin/.mgltools/1.5.7/ws/dock.dlg.pdb filetype = ascii offset = 7 stride = 12
AVSFLD: variable 4 file = C:/Users/Admin/.mgltools/1.5.7/ws/dock.dlg.pdb filetype = ascii offset = 8 stride = 12
AVSFLD: variable 5 file = C:/Users/Admin/.mgltools/1.5.7/ws/dock.dlg.pdb filetype = ascii offset = 9 stride = 12
AVSFLD: variable 6 file = C:/Users/Admin/.mgltools/1.5.7/ws/dock.dlg.pdb filetype = ascii offset = 10 stride = 12
AVSFLD: variable 7 file = C:/Users/Admin/.mgltools/1.5.7/ws/dock.dlg.pdb filetype = ascii offset = 11 stride = 12
AVSFLD: # end of file

>>> Closing the docking parameter file (DPF)...
This docking finished at:			7:26 29" p.m., 01/10/2026


________________________________________________________________________________

C:/Users/Admin/.mgltools/1.5.7/ws/autodock4.exe: Successful Completion on "DESKTOP-8TJI1NH"

Real= 5m 20.63s,  CPU= 5m 16.59s,  System= 0.56s
________________________________________________________________________________

