REMARK  6 active torsions:
REMARK  status: ('A' for Active; 'I' for Inactive)
REMARK    1  A    between atoms: O_2  and  C_7 
REMARK    2  A    between atoms: O_3  and  C_13 
REMARK    3  A    between atoms: O_4  and  C_18 
REMARK    4  A    between atoms: O_5  and  C_19 
REMARK    5  A    between atoms: O_6  and  C_21 
REMARK    6  A    between atoms: C_8  and  C_12 
ROOT
HETATM    1  O   UNK     0      14.327  -3.105   5.221  0.00  0.00    -0.338 OA
HETATM    2  C   UNK     0      13.199  -1.001   4.597  0.00  0.00     0.156 C 
HETATM    3  C   UNK     0      13.066  -2.418   5.173  0.00  0.00     0.191 C 
HETATM    4  C   UNK     0      14.149  -0.189   5.474  0.00  0.00     0.079 C 
HETATM    5  C   UNK     0      15.368  -0.984   5.830  0.00  0.00     0.011 A 
HETATM    6  C   UNK     0      15.384  -2.377   5.697  0.00  0.00     0.081 A 
HETATM    7  C   UNK     0      16.503  -0.333   6.332  0.00  0.00     0.077 A 
HETATM    8  C   UNK     0      16.532  -3.103   6.025  0.00  0.00     0.074 A 
HETATM    9  C   UNK     0      17.645  -1.061   6.669  0.00  0.00     0.073 A 
HETATM   10  C   UNK     0      17.661  -2.445   6.511  0.00  0.00     0.071 A 
ENDROOT
BRANCH   3  11
HETATM   11  C   UNK     0      12.124  -3.277   4.349  0.00  0.00    -0.024 A 
HETATM   12  C   UNK     0      12.304  -3.378   2.971  0.00  0.00     0.049 A 
HETATM   13  C   UNK     0      11.437  -4.168   2.214  0.00  0.00     0.099 A 
HETATM   14  C   UNK     0      10.393  -4.853   2.837  0.00  0.00     0.098 A 
HETATM   15  C   UNK     0      10.216  -4.749   4.216  0.00  0.00     0.040 A 
HETATM   16  C   UNK     0      11.082  -3.960   4.973  0.00  0.00     0.013 A 
BRANCH  13  17
HETATM   17  O   UNK     0      11.621  -4.262   0.868  0.00  0.00    -0.358 OA
HETATM   18  H   UNK     0      11.035  -4.954   0.515  0.00  0.00     0.217 HD
ENDBRANCH  13  17
BRANCH  14  19
HETATM   19  O   UNK     0       9.542  -5.627   2.107  0.00  0.00    -0.358 OA
HETATM   20  H   UNK     0       9.808  -5.593   1.172  0.00  0.00     0.217 HD
ENDBRANCH  14  19
ENDBRANCH   3  11
BRANCH   2  21
HETATM   21  O   UNK     0      11.928  -0.362   4.586  0.00  0.00    -0.392 OA
HETATM   22  H   UNK     0      12.053   0.532   4.223  0.00  0.00     0.210 HD
ENDBRANCH   2  21
BRANCH   7  23
HETATM   23  O   UNK     0      16.518   1.020   6.500  0.00  0.00    -0.360 OA
HETATM   24  H   UNK     0      16.310   1.450   5.653  0.00  0.00     0.217 HD
ENDBRANCH   7  23
BRANCH  10  25
HETATM   25  O   UNK     0      18.776  -3.155   6.837  0.00  0.00    -0.361 OA
HETATM   26  H   UNK     0      19.047  -3.685   6.068  0.00  0.00     0.217 HD
ENDBRANCH  10  25
TORSDOF 6
