          AutoDock 4.2 Release 4.2.6   
         (C) 1989-2012 The Scripps Research Institute
        AutoDock comes with ABSOLUTELY NO WARRANTY.
        AutoDock is free software, and you are welcome
        to redistribute it under certain conditions;
        for details type 'autodock4 -C'

                     main.cc  $Revision: 1.213 $

                   Compiled on Jul 18 2014 at 15:34:58


This file was created at:			6:21 57" p.m., 01/10/2026
                   on host:		"DESKTOP-8TJI1NH"
Current Working Directory = "C:\Users\Admin\.mgltools\1.5.7\ws"

      ________________________________________________________________

                   SETTING UP DEFAULT PARAMETER LIBRARY
      ________________________________________________________________


Random number generator was seeded with values 16368, 1768049517.
Docking parameter file (DPF) used for this docking:		C:/Users/Admin/.mgltools/1.5.7/ws/dock.dpf
DPF> autodock_parameter_version 4.2       # used by autodock to validate parameter set

	Autodock parameter version 4.2.
DPF> outlev 1                             # diagnostic output level

Output Level = 1  ADT-COMPATIBLE OUTPUT DURING DOCKING.
DPF> intelec                              # calculate internal electrostatics

Electrostatic energies will be calculated for all non-bonds between moving atoms.
DPF> seed pid time                        # seeds for random generator

Random number generator was seeded with values 16368, 1768049517.
DPF> ligand_types A C HD OA               # atoms types in ligand

DPF> fld HUMA.maps.fld                    # grid_data_file

Opening Grid Map Dimensions file:		HUMA.maps.fld
Grid Point Spacing =				0.447 Angstroms

Even Number of User-specified Grid Points =	36 x-points
						42 y-points
						38 z-points

Coordinates of Central Grid Point of Maps =	(11.837, -2.923, 4.726)
Macromolecule file used to create Grid Maps =	HUMA.pdbqt
Grid Parameter file used to create Grid Maps =	C:/Users/Admin/.mgltools/1.5.7/ws/grid.gpf
Minimum coordinates in grid = (3.791, -12.310, -3.767)
Maximum coordinates in grid = (19.883, 6.464, 13.219)

DPF> map HUMA.A.map                       # atom-specific affinity map

DPF> map HUMA.C.map                       # atom-specific affinity map

DPF> map HUMA.HD.map                      # atom-specific affinity map

DPF> map HUMA.OA.map                      # atom-specific affinity map

DPF> elecmap HUMA.e.map                   # electrostatics map

DPF> desolvmap HUMA.d.map                 # desolvation map

DPF> move CAT.pdbqt                       # small molecule

1,4-interactions will be _ignored_ in the non-bonded internal energy calculation.

Ligand PDBQT file = "CAT.pdbqt"

INPUT LIGAND PDBQT FILE:
________________________

INPUT-LIGAND-PDBQT: REMARK  6 active torsions:
INPUT-LIGAND-PDBQT: REMARK  status: ('A' for Active; 'I' for Inactive)
INPUT-LIGAND-PDBQT: REMARK    1  A    between atoms: O_2  and  C_7 
INPUT-LIGAND-PDBQT: REMARK    2  A    between atoms: O_3  and  C_13 
INPUT-LIGAND-PDBQT: REMARK    3  A    between atoms: O_4  and  C_18 
INPUT-LIGAND-PDBQT: REMARK    4  A    between atoms: O_5  and  C_19 
INPUT-LIGAND-PDBQT: REMARK    5  A    between atoms: O_6  and  C_21 
INPUT-LIGAND-PDBQT: REMARK    6  A    between atoms: C_8  and  C_12 
INPUT-LIGAND-PDBQT: ROOT
INPUT-LIGAND-PDBQT: HETATM    1  O   UNK     0       0.406   0.685  -0.357  0.00  0.00    -0.338 OA
INPUT-LIGAND-PDBQT: HETATM    2  C   UNK     0       0.077  -1.655   0.352  0.00  0.00     0.156 C 
INPUT-LIGAND-PDBQT: HETATM    3  C   UNK     0      -0.338  -0.521  -0.596  0.00  0.00     0.191 C 
INPUT-LIGAND-PDBQT: HETATM    4  C   UNK     0       1.558  -1.963   0.151  0.00  0.00     0.079 C 
INPUT-LIGAND-PDBQT: HETATM    5  C   UNK     0       2.366  -0.703   0.071  0.00  0.00     0.011 A 
INPUT-LIGAND-PDBQT: HETATM    6  C   UNK     0       1.755   0.529  -0.186  0.00  0.00     0.081 A 
INPUT-LIGAND-PDBQT: HETATM    7  C   UNK     0       3.758  -0.756   0.227  0.00  0.00     0.077 A 
INPUT-LIGAND-PDBQT: HETATM    8  C   UNK     0       2.521   1.696  -0.248  0.00  0.00     0.074 A 
INPUT-LIGAND-PDBQT: HETATM    9  C   UNK     0       4.522   0.409   0.154  0.00  0.00     0.073 A 
INPUT-LIGAND-PDBQT: HETATM   10  C   UNK     0       3.904   1.635  -0.079  0.00  0.00     0.071 A 
INPUT-LIGAND-PDBQT: ENDROOT
INPUT-LIGAND-PDBQT: BRANCH   3  11
INPUT-LIGAND-PDBQT: HETATM   11  C   UNK     0      -1.808  -0.172  -0.451  0.00  0.00    -0.024 A 
INPUT-LIGAND-PDBQT: HETATM   12  C   UNK     0      -2.303   0.248   0.781  0.00  0.00     0.049 A 
INPUT-LIGAND-PDBQT: HETATM   13  C   UNK     0      -3.655   0.568   0.914  0.00  0.00     0.099 A 
INPUT-LIGAND-PDBQT: HETATM   14  C   UNK     0      -4.507   0.467  -0.186  0.00  0.00     0.098 A 
INPUT-LIGAND-PDBQT: HETATM   15  C   UNK     0      -4.008   0.046  -1.418  0.00  0.00     0.040 A 
INPUT-LIGAND-PDBQT: HETATM   16  C   UNK     0      -2.657  -0.274  -1.551  0.00  0.00     0.013 A 
INPUT-LIGAND-PDBQT: BRANCH  13  17
INPUT-LIGAND-PDBQT: HETATM   17  O   UNK     0      -4.130   0.979   2.122  0.00  0.00    -0.358 OA
INPUT-LIGAND-PDBQT: HETATM   18  H   UNK     0      -3.399   0.988   2.765  0.00  0.00     0.217 HD
INPUT-LIGAND-PDBQT: ENDBRANCH  13  17
INPUT-LIGAND-PDBQT: BRANCH  14  19
INPUT-LIGAND-PDBQT: HETATM   19  O   UNK     0      -5.828   0.778  -0.068  0.00  0.00    -0.358 OA
INPUT-LIGAND-PDBQT: HETATM   20  H   UNK     0      -6.261   0.649  -0.930  0.00  0.00     0.217 HD
INPUT-LIGAND-PDBQT: ENDBRANCH  14  19
INPUT-LIGAND-PDBQT: ENDBRANCH   3  11
INPUT-LIGAND-PDBQT: BRANCH   2  21
INPUT-LIGAND-PDBQT: HETATM   21  O   UNK     0      -0.677  -2.827   0.064  0.00  0.00    -0.392 OA
INPUT-LIGAND-PDBQT: HETATM   22  H   UNK     0      -0.376  -3.525   0.670  0.00  0.00     0.210 HD
INPUT-LIGAND-PDBQT: ENDBRANCH   2  21
INPUT-LIGAND-PDBQT: BRANCH   7  23
INPUT-LIGAND-PDBQT: HETATM   23  O   UNK     0       4.393  -1.941   0.454  0.00  0.00    -0.360 OA
INPUT-LIGAND-PDBQT: HETATM   24  H   UNK     0       5.349  -1.781   0.535  0.00  0.00     0.217 HD
INPUT-LIGAND-PDBQT: ENDBRANCH   7  23
INPUT-LIGAND-PDBQT: BRANCH  10  25
INPUT-LIGAND-PDBQT: HETATM   25  O   UNK     0       4.649   2.772  -0.147  0.00  0.00    -0.361 OA
INPUT-LIGAND-PDBQT: HETATM   26  H   UNK     0       4.058   3.526  -0.316  0.00  0.00     0.217 HD
INPUT-LIGAND-PDBQT: ENDBRANCH  10  25
INPUT-LIGAND-PDBQT: TORSDOF 6
________________________________________________________________________________

Total charge on ligand                               =	-0.001 e
REMARK  6 active torsions:
REMARK  status: ('A' for Active; 'I' for Inactive)
REMARK    1  A    between atoms: O_2  and  C_7 
REMARK    2  A    between atoms: O_3  and  C_13 
REMARK    3  A    between atoms: O_4  and  C_18 
REMARK    4  A    between atoms: O_5  and  C_19 
REMARK    5  A    between atoms: O_6  and  C_21 
REMARK    6  A    between atoms: C_8  and  C_12 


Number of Rotatable Bonds in Small Molecule =	6 torsions
Number of atoms in ligand:  26

Number of non-hydrogen atoms in ligand:  21

Number of vibrational degrees of freedom of ligand:  72


Number of torsional degrees of freedom = 6
Estimated loss of torsional free energy upon binding = +1.7898 kcal/mol


DPF> about -0.024 -0.005 0.105            # small molecule center

Small molecule center of rotation =	(-0.024, -0.005, +0.105)

DPF> tran0 random                         # initial coordinates/A or random

Initial translation =			(5.086, -7.643, 4.433) Angstroms
DPF> quaternion0 random                   # initial orientation

Each run will begin with a new, random initial orientation.
Initial quaternion,  (x,y,z,w) =	( -0.250, 0.606, -0.665, -0.358 ),
DPF> dihe0 random                         # initial dihedrals (relative) or random

DPF> torsdof 6                            # torsional degrees of freedom

Number of torsional degrees of freedom = 6
Free energy coefficient for torsional degrees of freedom = 0.2983, the factory default value.

Estimated loss of torsional free energy upon binding = +1.7898 kcal/mol

DPF> rmstol 2.0                           # cluster_tolerance/A

Maximum RMS tolerance for conformational cluster analysis = 2.00 Angstroms
DPF> extnrg 1000.0                        # external grid energy

External grid energy (beyond grid map walls) = 1000.00

DPF> e0max 0.0 10000                      # max initial energy; max number of retries

Using user-specified maximum number of retries for simanneal initialization, 10000 retries.
If the simanneal initial energy is greater than e0max, 0.000,
then a new, random initial state will be created.

DPF> ga_pop_size 150                      # number of individuals in population

A population of 150 individuals will be used
DPF> ga_num_evals 2500000                 # maximum number of energy evaluations

There will be at most 2500000 function evaluations used.
DPF> ga_num_generations 27000             # maximum number of generations

The GA will run for at most 27000 generations.
DPF> ga_elitism 1                         # number of top individuals to survive to next generation

The 1 best will be preserved each GA generation.
DPF> ga_mutation_rate 0.02                # rate of gene mutation

The mutation rate is 0.020000.
DPF> ga_crossover_rate 0.8                # rate of crossover

The crossover rate is 0.800000.
DPF> ga_window_size 10                    # 

The GA's selection window is 10 generations.
DPF> ga_cauchy_alpha 0.0                  # Alpha parameter of Cauchy distribution

The alpha parameter (for the Cauchy distribution) is being set to 0.000000.
DPF> ga_cauchy_beta 1.0                   # Beta parameter Cauchy distribution

The beta parameter (for the Cauchy distribution) is being set to 1.000000.
DPF> set_ga                               # set the above parameters for GA or LGA

DPF> sw_max_its 300                       # iterations of Solis & Wets local search

Solis & Wets algorithms will perform at most 300 iterations.
DPF> sw_max_succ 4                        # consecutive successes before changing rho

Solis & Wets algorithms expand rho every 4 in a row successes.
DPF> sw_max_fail 4                        # consecutive failures before changing rho

Solis & Wets algorithms contract rho every 4 in a row failures.
DPF> sw_rho 1.0                           # size of local search space to sample

rho is set to 1.000000.
DPF> sw_lb_rho 0.01                       # lower bound on rho

rho will never get smaller than 0.010000.
DPF> ls_search_freq 0.06                  # probability of performing local search on individual

Local search will be performed with frequency 0.060000.
DPF> set_psw1                             # set the above pseudo-Solis & Wets parameters

Creating a new Local Search object using the pseudo-Solis-Wets algorithm (pSW1) with the current settings.

DPF> unbound_model extended               # state of unbound ligand

C:/Users/Admin/.mgltools/1.5.7/ws/autodock4.exe: WARNING: Using autodock4.0 unbound extended model in autodock4.2!
Computing the energy of the unbound state of the ligand,
given the torsion tree defined in the ligand file.


	BEGINNING COMPUTATION OF UNBOUND EXTENDED STATE USING LGA
	_________________________________________________________


Date:	Sat Jan 10 18:21:57 2026
Beginning LAMARCKIAN GENETIC ALGORITHM (LGA), with a maximum of 1000000 energy evaluations.

Final-Value: -1167.879

Finished Lamarckian Genetic Algorithm (LGA)
6:22 07" p.m., 01/10/2026

Total number of Energy Evaluations: 1000749
Total number of Generations:        1036


		Ligand Intramolecular Energy Analysis
		=====================================

Non-bond  Atom1-Atom2  Distance   Total        Elec     vdW        Hb     Desolv     Sol_fn   Type Dielectric
________  ___________  ________   ______  _________  ________ ________  ________   ________   ____ __________
      1       1-13      4.4901   -0.0307    -0.0162   -0.0175   +0.0000   +0.0030    +0.0607   1    21.543
      2       1-14      4.9198   -0.0212    -0.0130   -0.0109   +0.0000   +0.0026    +0.0520   1    24.255
      3       1-15      4.3546   -0.0249    -0.0070   -0.0203   +0.0000   +0.0025    +0.0637   1    20.694
      4       1-17      5.5553   +0.0344    +0.0358   -0.0031   +0.0000   +0.0018    +0.0402   1    28.439
      5       1-18      5.7974   -0.0179    -0.0196   +0.0000   -0.0001   +0.0018    +0.0362   1    30.072
      6       1-19      6.2391   +0.0272    +0.0274   -0.0015   +0.0000   +0.0013    +0.0295   1    33.079
      7       1-20      6.5045   -0.0138    -0.0151   +0.0000   -0.0000   +0.0013    +0.0259   1    34.894
      8       1-22      4.3887   -0.0343    -0.0361   +0.0000   -0.0013   +0.0030    +0.0629   1    20.913
      9       1-24      5.5951   -0.0195    -0.0213   +0.0000   -0.0001   +0.0020    +0.0395   1    28.703
     10       1-26      5.3896   -0.0213    -0.0233   +0.0000   -0.0002   +0.0021    +0.0431   1    27.333
     11       2-13      4.8420   -0.0093    +0.0063   -0.0171   +0.0000   +0.0015    +0.0535   1    23.761
     12       2-14      5.0800   -0.0066    +0.0056   -0.0136   +0.0000   +0.0014    +0.0489   1    25.288
     13       2-15      4.2963   -0.0211    +0.0033   -0.0248   +0.0000   +0.0004    +0.0649   1    20.341
     14       2-17      6.0170   -0.0153    -0.0137   -0.0033   +0.0000   +0.0017    +0.0327   1    31.564
     15       2-18      6.5940   +0.0089    +0.0067   -0.0002   +0.0000   +0.0024    +0.0247   1    35.516
     16       2-19      6.3968   -0.0128    -0.0119   -0.0023   +0.0000   +0.0014    +0.0273   1    34.164
     17       2-20      6.6804   +0.0087    +0.0066   -0.0002   +0.0000   +0.0023    +0.0236   1    36.113
     18       2-24      5.2709   +0.0149    +0.0113   -0.0008   +0.0000   +0.0044    +0.0453   1    26.556
     19       2-26      6.9214   +0.0079    +0.0060   -0.0001   +0.0000   +0.0020    +0.0208   1    37.763
     20       3-18      5.3660   +0.0168    +0.0133   -0.0007   +0.0000   +0.0042    +0.0436   1    27.179
     21       3-20      6.0473   +0.0128    +0.0101   -0.0003   +0.0000   +0.0031    +0.0323   1    31.776
     22       3-24      5.9360   +0.0134    +0.0105   -0.0004   +0.0000   +0.0033    +0.0340   1    31.012
     23       3-26      6.5614   +0.0106    +0.0084   -0.0002   +0.0000   +0.0024    +0.0251   1    35.288
     24       4-12      4.9202   -0.0153    +0.0015   -0.0158   +0.0000   -0.0010    +0.0520   1    24.255
     25       4-13      6.1791   -0.0027    +0.0018   -0.0045   +0.0000   +0.0000    +0.0303   1    32.666
     26       4-14      6.5424   -0.0016    +0.0016   -0.0032   +0.0000   -0.0000    +0.0254   1    35.157
     27       4-15      5.7849   -0.0066    +0.0009   -0.0066   +0.0000   -0.0008    +0.0364   1    29.981
     28       4-16      4.4160   -0.0252    +0.0005   -0.0238   +0.0000   -0.0020    +0.0623   1    21.088
     29       4-17      7.2697   -0.0049    -0.0045   -0.0010   +0.0000   +0.0007    +0.0172   1    40.127
     30       4-18      7.8176   +0.0035    +0.0023   -0.0001   +0.0000   +0.0012    +0.0125   1    43.776
     31       4-19      7.8785   -0.0040    -0.0038   -0.0006   +0.0000   +0.0005    +0.0121   1    44.181
     32       4-20      8.1724   +0.0031    +0.0021   +0.0000   +0.0000   +0.0010    +0.0101   1    46.085
     33       4-24      3.8135   +0.0140    +0.0120   -0.0053   +0.0000   +0.0073    +0.0755   1    17.487
     34       4-26      6.0479   +0.0069    +0.0042   -0.0003   +0.0000   +0.0031    +0.0323   1    31.776
     35       5-12      5.2742   -0.0115    +0.0002   -0.0111   +0.0000   -0.0006    +0.0452   1    26.576
     36       5-13      6.5715   -0.0028    +0.0002   -0.0031   +0.0000   +0.0001    +0.0250   1    35.353
     37       5-14      6.9760   -0.0019    +0.0002   -0.0022   +0.0000   +0.0001    +0.0202   1    38.131
     38       5-15      6.2282   -0.0047    +0.0001   -0.0043   +0.0000   -0.0005    +0.0296   1    33.011
     39       5-16      4.8407   -0.0185    +0.0001   -0.0171   +0.0000   -0.0014    +0.0536   1    23.741
     40       5-17      7.6398   -0.0008    -0.0006   -0.0008   +0.0000   +0.0006    +0.0139   1    42.600
     41       5-18      8.0281   +0.0014    +0.0003   +0.0000   +0.0000   +0.0011    +0.0110   1    45.153
     42       5-19      8.3246   -0.0001    -0.0005   +0.0000   +0.0000   +0.0004    +0.0091   1    47.050
     43       5-20      8.5723   +0.0010    +0.0003   +0.0000   +0.0000   +0.0008    +0.0078   1    48.599
     44       5-22      3.8868   +0.0036    +0.0016   -0.0049   +0.0000   +0.0070    +0.0738   1    17.909
     45       5-26      4.5740   +0.0049    +0.0011   -0.0019   +0.0000   +0.0057    +0.0590   1    22.059
     46       6-12      4.5862   -0.0187    +0.0018   -0.0213   +0.0000   +0.0008    +0.0587   1    22.144
     47       6-13      5.8331   -0.0031    +0.0021   -0.0063   +0.0000   +0.0011    +0.0356   1    30.309
     48       6-14      6.2613   -0.0015    +0.0018   -0.0042   +0.0000   +0.0009    +0.0291   1    33.233
     49       6-15      5.6035   -0.0066    +0.0009   -0.0079   +0.0000   +0.0004    +0.0394   1    28.759
     50       6-16      4.2912   -0.0243    +0.0006   -0.0249   +0.0000   -0.0000    +0.0650   1    20.318
     51       6-17      6.8704   -0.0056    -0.0053   -0.0015   +0.0000   +0.0012    +0.0214   1    37.407
     52       6-18      7.1199   +0.0046    +0.0029   -0.0001   +0.0000   +0.0018    +0.0187   1    39.112
     53       6-19      7.5850   -0.0043    -0.0042   -0.0008   +0.0000   +0.0008    +0.0144   1    42.245
     54       6-20      7.8173   +0.0035    +0.0024   -0.0001   +0.0000   +0.0012    +0.0125   1    43.776
     55       6-22      4.6045   +0.0114    +0.0078   -0.0018   +0.0000   +0.0055    +0.0584   1    22.251
     56       6-24      4.3326   +0.0128    +0.0092   -0.0027   +0.0000   +0.0062    +0.0641   1    20.561
     57       6-26      4.2521   +0.0130    +0.0096   -0.0030   +0.0000   +0.0064    +0.0659   1    20.074
     58       7-12      6.6455   -0.0019    +0.0007   -0.0029   +0.0000   +0.0003    +0.0241   1    35.872
     59       7-13      7.9551   +0.0004    +0.0010   -0.0010   +0.0000   +0.0003    +0.0115   1    44.684
     60       7-14      8.3645   +0.0012    +0.0009   +0.0000   +0.0000   +0.0003    +0.0089   1    47.298
     61       7-15      7.5854   -0.0007    +0.0004   -0.0013   +0.0000   +0.0001    +0.0144   1    42.245
     62       7-16      6.1991   -0.0042    +0.0002   -0.0044   +0.0000   -0.0001    +0.0300   1    32.804
     63       7-17      8.9962   -0.0025    -0.0028   +0.0000   +0.0000   +0.0003    +0.0058   1    51.157
     64       7-18      9.3579   +0.0020    +0.0016   +0.0000   +0.0000   +0.0004    +0.0045   1    53.250
     65       7-19      9.7087   -0.0022    -0.0024   +0.0000   +0.0000   +0.0002    +0.0035   1    55.180
     66       7-20      9.9300   +0.0017    +0.0014   +0.0000   +0.0000   +0.0003    +0.0029   1    56.348
     67       7-22      4.8820   +0.0101    +0.0064   -0.0013   +0.0000   +0.0050    +0.0528   1    24.009
     68       7-26      3.8659   +0.0136    +0.0113   -0.0050   +0.0000   +0.0072    +0.0743   1    17.792
     69       8-12      5.5313   -0.0070    +0.0011   -0.0085   +0.0000   +0.0004    +0.0406   1    28.288
     70       8-13      6.7025   -0.0007    +0.0014   -0.0028   +0.0000   +0.0007    +0.0234   1    36.257
     71       8-14      7.1335   -0.0001    +0.0012   -0.0019   +0.0000   +0.0005    +0.0186   1    39.201
     72       8-15      6.5215   -0.0025    +0.0006   -0.0033   +0.0000   +0.0002    +0.0257   1    35.010
     73       8-16      5.3112   -0.0105    +0.0003   -0.0107   +0.0000   -0.0001    +0.0446   1    26.810
     74       8-17      7.6571   -0.0038    -0.0038   -0.0008   +0.0000   +0.0007    +0.0138   1    42.723
     75       8-18      7.7529   +0.0034    +0.0022   -0.0001   +0.0000   +0.0013    +0.0130   1    43.353
     76       8-19      8.3978   -0.0026    -0.0031   +0.0000   +0.0000   +0.0005    +0.0087   1    47.509
     77       8-20      8.5786   +0.0025    +0.0018   +0.0000   +0.0000   +0.0007    +0.0077   1    48.633
     78       8-22      5.9871   +0.0066    +0.0039   -0.0004   +0.0000   +0.0031    +0.0332   1    31.369
     79       8-24      4.5499   +0.0113    +0.0075   -0.0020   +0.0000   +0.0058    +0.0595   1    21.909
     80       9-12      7.3262   -0.0009    +0.0006   -0.0016   +0.0000   +0.0002    +0.0167   1    40.503
     81       9-13      8.6099   +0.0010    +0.0008   +0.0000   +0.0000   +0.0002    +0.0076   1    48.834
     82       9-14      9.0345   +0.0009    +0.0007   +0.0000   +0.0000   +0.0002    +0.0057   1    51.381
     83       9-15      8.2868   +0.0004    +0.0004   +0.0000   +0.0000   +0.0001    +0.0094   1    46.811
     84       9-16      6.9445   -0.0021    +0.0002   -0.0022   +0.0000   -0.0001    +0.0206   1    37.917
     85       9-17      9.6063   -0.0021    -0.0023   +0.0000   +0.0000   +0.0002    +0.0038   1    54.620
     86       9-18      9.8441   +0.0016    +0.0013   +0.0000   +0.0000   +0.0003    +0.0031   1    55.902
     87       9-19     10.3549   -0.0019    -0.0020   +0.0000   +0.0000   +0.0001    +0.0021   1    58.482
     88       9-20     10.5396   +0.0014    +0.0012   +0.0000   +0.0000   +0.0002    +0.0018   1    59.359
     89       9-22      6.2022   +0.0060    +0.0035   -0.0003   +0.0000   +0.0028    +0.0300   1    32.821
     90      10-12      6.8494   -0.0016    +0.0006   -0.0024   +0.0000   +0.0002    +0.0216   1    37.267
     91      10-13      8.0607   +0.0012    +0.0009   +0.0000   +0.0000   +0.0003    +0.0108   1    45.367
     92      10-14      8.4910   +0.0010    +0.0008   +0.0000   +0.0000   +0.0002    +0.0082   1    48.099
     93      10-15      7.8211   -0.0006    +0.0004   -0.0011   +0.0000   +0.0001    +0.0125   1    43.803
     94      10-16      6.5665   -0.0030    +0.0002   -0.0031   +0.0000   -0.0001    +0.0251   1    35.321
     95      10-17      9.0092   -0.0023    -0.0026   +0.0000   +0.0000   +0.0003    +0.0058   1    51.239
     96      10-18      9.1221   +0.0020    +0.0015   +0.0000   +0.0000   +0.0005    +0.0053   1    51.894
     97      10-19      9.7657   -0.0020    -0.0022   +0.0000   +0.0000   +0.0002    +0.0033   1    55.481
     98      10-20      9.9288   +0.0016    +0.0013   +0.0000   +0.0000   +0.0003    +0.0029   1    56.340
     99      10-22      6.6691   +0.0049    +0.0029   -0.0002   +0.0000   +0.0022    +0.0238   1    36.033
    100      10-24      3.7602   +0.0128    +0.0111   -0.0058   +0.0000   +0.0074    +0.0767   1    17.179
    101      11-18      4.1275   +0.0001    -0.0030   -0.0035   +0.0000   +0.0066    +0.0685   1    19.334
    102      11-20      4.5538   +0.0013    -0.0024   -0.0020   +0.0000   +0.0058    +0.0594   1    21.931
    103      11-22      3.8722   -0.0014    -0.0034   -0.0050   +0.0000   +0.0070    +0.0742   1    17.816
    104      11-24      7.4004   +0.0006    -0.0008   -0.0001   +0.0000   +0.0015    +0.0160   1    41.003
    105      11-26      7.7567   +0.0005    -0.0007   -0.0001   +0.0000   +0.0013    +0.0130   1    43.380
    106      12-20      4.3130   +0.0092    +0.0056   -0.0027   +0.0000   +0.0062    +0.0645   1    20.451
    107      12-21      3.8214   -0.0376    -0.0134   -0.0288   +0.0000   +0.0045    +0.0753   1    17.534
    108      12-22      4.7930   +0.0080    +0.0043   -0.0014   +0.0000   +0.0051    +0.0545   1    23.450
    109      12-23      7.5362   -0.0027    -0.0026   -0.0008   +0.0000   +0.0007    +0.0148   1    41.915
    110      12-24      8.4189   +0.0021    +0.0012   +0.0000   +0.0000   +0.0008    +0.0086   1    47.649
    111      12-25      7.8645   -0.0024    -0.0024   -0.0006   +0.0000   +0.0006    +0.0122   1    44.090
    112      12-26      8.4613   +0.0020    +0.0012   +0.0000   +0.0000   +0.0008    +0.0083   1    47.915
    113      13-21      4.8076   -0.0246    -0.0160   -0.0123   +0.0000   +0.0038    +0.0542   1    23.533
    114      13-22      5.7532   +0.0087    +0.0057   -0.0005   +0.0000   +0.0035    +0.0369   1    29.779
    115      13-23      8.8507   -0.0034    -0.0037   +0.0000   +0.0000   +0.0004    +0.0064   1    50.292
    116      13-24      9.7384   +0.0022    +0.0019   +0.0000   +0.0000   +0.0003    +0.0034   1    55.335
    117      13-25      9.0117   -0.0033    -0.0036   +0.0000   +0.0000   +0.0003    +0.0058   1    51.249
    118      13-26      9.6605   +0.0022    +0.0019   +0.0000   +0.0000   +0.0003    +0.0036   1    54.920
    119      14-21      5.0589   -0.0200    -0.0141   -0.0093   +0.0000   +0.0034    +0.0493   1    25.148
    120      14-22      5.9345   +0.0080    +0.0052   -0.0004   +0.0000   +0.0032    +0.0340   1    31.012
    121      14-23      9.2418   -0.0031    -0.0034   +0.0000   +0.0000   +0.0003    +0.0049   1    52.591
    122      14-24     10.1293   +0.0020    +0.0017   +0.0000   +0.0000   +0.0002    +0.0025   1    57.367
    123      14-25      9.4401   -0.0030    -0.0033   +0.0000   +0.0000   +0.0002    +0.0043   1    53.707
    124      14-26     10.1765   +0.0019    +0.0017   +0.0000   +0.0000   +0.0002    +0.0024   1    57.598
    125      15-18      4.0040   +0.0082    +0.0054   -0.0041   +0.0000   +0.0069    +0.0712   1    18.604
    126      15-21      4.4237   -0.0231    -0.0078   -0.0189   +0.0000   +0.0036    +0.0622   1    21.131
    127      15-22      5.2175   +0.0064    +0.0029   -0.0009   +0.0000   +0.0044    +0.0463   1    26.203
    128      15-23      8.4241   -0.0013    -0.0017   +0.0000   +0.0000   +0.0004    +0.0086   1    47.672
    129      15-24      9.2969   +0.0013    +0.0008   +0.0000   +0.0000   +0.0005    +0.0047   1    52.899
    130      15-25      8.8130   -0.0012    -0.0015   +0.0000   +0.0000   +0.0003    +0.0066   1    50.069
    131      15-26      9.5957   +0.0011    +0.0008   +0.0000   +0.0000   +0.0004    +0.0038   1    54.567
    132      16-18      4.5647   +0.0051    +0.0013   -0.0019   +0.0000   +0.0057    +0.0592   1    21.995
    133      16-20      3.7928   +0.0039    +0.0020   -0.0055   +0.0000   +0.0074    +0.0759   1    17.369
    134      16-21      3.3263   -0.0290    -0.0048   -0.0287   +0.0000   +0.0046    +0.0863   1    14.780
    135      16-22      4.1354   +0.0046    +0.0016   -0.0035   +0.0000   +0.0064    +0.0684   1    19.379
    136      16-23      7.0313   -0.0013    -0.0008   -0.0013   +0.0000   +0.0008    +0.0196   1    38.511
    137      16-24      7.9050   +0.0015    +0.0004   -0.0001   +0.0000   +0.0012    +0.0119   1    44.349
    138      16-25      7.6367   -0.0009    -0.0007   -0.0008   +0.0000   +0.0006    +0.0139   1    42.587
    139      16-26      8.3880   +0.0012    +0.0003   +0.0000   +0.0000   +0.0008    +0.0088   1    47.450
    140      17-20      3.6955   -0.0616    -0.0583   +0.0000   -0.0071   +0.0039    +0.0781   1    16.821
    141      17-21      5.8806   +0.0361    +0.0364   -0.0022   +0.0000   +0.0019    +0.0348   1    30.634
    142      17-22      6.8181   -0.0128    -0.0139   +0.0000   -0.0000   +0.0011    +0.0220   1    37.048
    143      17-23      9.8962   +0.0110    +0.0108   +0.0000   +0.0000   +0.0001    +0.0030   1    56.168
    144      17-24     10.7752   -0.0055    -0.0056   +0.0000   +0.0000   +0.0001    +0.0015   1    60.442
    145      17-25      9.8944   +0.0110    +0.0109   +0.0000   +0.0000   +0.0001    +0.0030   1    56.159
    146      17-26     10.4893   -0.0058    -0.0058   +0.0000   +0.0000   +0.0001    +0.0019   1    59.120
    147      18-19      2.9115   -0.1668    -0.0988   +0.0000   -0.0726   +0.0047    +0.0954   1    12.609
    148      18-20      3.7251   +0.0345    +0.0347   -0.0002   +0.0000   +0.0000    +0.0774   1    16.989
    149      18-21      6.6188   -0.0156    -0.0168   +0.0000   -0.0000   +0.0012    +0.0244   1    35.678
    150      18-22      7.5749   +0.0067    +0.0067   -0.0000   +0.0000   +0.0000    +0.0145   1    42.177
    151      18-23     10.3479   -0.0059    -0.0060   +0.0000   +0.0000   +0.0001    +0.0021   1    58.445
    152      18-24     11.1914   +0.0032    +0.0032   +0.0000   +0.0000   +0.0000    +0.0011   1    62.238
    153      18-25      9.8986   -0.0064    -0.0066   +0.0000   +0.0000   +0.0001    +0.0030   1    56.184
    154      18-26     10.5140   +0.0035    +0.0035   +0.0000   +0.0000   +0.0000    +0.0019   1    59.240
    155      19-21      6.2874   +0.0313    +0.0312   -0.0015   +0.0000   +0.0016    +0.0288   1    33.421
    156      19-22      7.1220   -0.0117    -0.0126   +0.0000   -0.0000   +0.0009    +0.0187   1    39.127
    157      19-23     10.5856   +0.0096    +0.0095   +0.0000   +0.0000   +0.0001    +0.0018   1    59.573
    158      19-24     11.4718   -0.0049    -0.0050   +0.0000   +0.0000   +0.0000    +0.0008   1    63.373
    159      19-25     10.6612   +0.0095    +0.0094   +0.0000   +0.0000   +0.0001    +0.0016   1    59.926
    160      19-26     11.4207   -0.0050    -0.0050   +0.0000   +0.0000   +0.0000    +0.0009   1    63.168
    161      20-21      6.6619   -0.0154    -0.0166   +0.0000   -0.0000   +0.0012    +0.0239   1    35.985
    162      20-22      7.4508   +0.0069    +0.0069   -0.0000   +0.0000   +0.0000    +0.0155   1    41.342
    163      20-23     10.8182   -0.0055    -0.0056   +0.0000   +0.0000   +0.0001    +0.0014   1    60.637
    164      20-24     11.6827   +0.0029    +0.0029   +0.0000   +0.0000   +0.0000    +0.0007   1    64.180
    165      20-25     10.7885   -0.0055    -0.0056   +0.0000   +0.0000   +0.0001    +0.0015   1    60.501
    166      20-26     11.5973   +0.0030    +0.0030   +0.0000   +0.0000   +0.0000    +0.0007   1    63.855
    167      21-24      6.1324   -0.0185    -0.0200   +0.0000   -0.0000   +0.0015    +0.0310   1    32.354
    168      21-26      8.2086   -0.0100    -0.0104   +0.0000   +0.0000   +0.0005    +0.0098   1    46.317
    169      22-23      4.8927   -0.0278    -0.0299   +0.0000   -0.0004   +0.0025    +0.0525   1    24.091
    170      22-24      5.8453   +0.0120    +0.0120   -0.0000   +0.0000   +0.0000    +0.0354   1    30.399
    171      22-25      8.0251   -0.0092    -0.0098   +0.0000   +0.0000   +0.0005    +0.0110   1    45.128
    172      22-26      8.4561   +0.0053    +0.0053   +0.0000   +0.0000   +0.0000    +0.0084   1    47.881
    173      23-26      4.8024   -0.0301    -0.0323   +0.0000   -0.0005   +0.0027    +0.0543   1    23.513
    174      24-25      4.6577   -0.0326    -0.0348   +0.0000   -0.0007   +0.0028    +0.0573   1    22.591
    175      24-26      4.5657   +0.0218    +0.0219   -0.0001   +0.0000   +0.0000    +0.0592   1    22.016
                                ________   ________  ________  ________  ________
Total                            -0.4660    -0.1592   -0.4986    -0.0831   +0.2749
                                ________  ________  ________  ________ ________
                                   Total       Elec       vdW        Hb    Desolv


	Per-atom Intramolecular Energy Analysis
	=======================================

Atom Type   Total     Elec       vdW        Hb     Desolv 
____ ___  ________  ________  ________  ________  ________
   1  OA   -0.0610   -0.0442   -0.0267   -0.0008   +0.0107
   2  C    -0.0124   +0.0101   -0.0312   +0.0000   +0.0088
   3  C    +0.0268   +0.0211   -0.0008   +0.0000   +0.0065
   4  C    -0.0164   +0.0093   -0.0307   +0.0000   +0.0050
   5  A    -0.0146   +0.0015   -0.0227   +0.0000   +0.0066
   6  A    -0.0093   +0.0148   -0.0372   +0.0000   +0.0131
   7  A    +0.0087   +0.0094   -0.0079   +0.0000   +0.0072
   8  A    -0.0017   +0.0066   -0.0152   +0.0000   +0.0069
   9  A    +0.0022   +0.0022   -0.0021   +0.0000   +0.0021
  10  A    +0.0070   +0.0075   -0.0063   +0.0000   +0.0058
  11  A    +0.0006   -0.0052   -0.0053   +0.0000   +0.0111
  12  A    -0.0392   +0.0003   -0.0491   +0.0000   +0.0096
  13  A    -0.0323   -0.0078   -0.0325   +0.0000   +0.0080
  14  A    -0.0220   -0.0062   -0.0227   +0.0000   +0.0069
  15  A    -0.0379   -0.0006   -0.0468   +0.0000   +0.0094
  16  A    -0.0514   +0.0007   -0.0640   +0.0000   +0.0119
  17  OA   -0.0152   -0.0127   -0.0063   -0.0036   +0.0074
  18  HD   -0.0536   -0.0319   -0.0055   -0.0364   +0.0202
  19  OA   -0.0703   -0.0370   -0.0034   -0.0363   +0.0064
  20  HD   -0.0019   -0.0107   -0.0055   -0.0036   +0.0178
  21  OA   -0.0631   -0.0262   -0.0508   -0.0000   +0.0140
  22  HD   +0.0059   -0.0147   -0.0102   -0.0008   +0.0317
  23  OA   -0.0302   -0.0328   -0.0011   -0.0005   +0.0041
  24  HD   +0.0238   +0.0101   -0.0086   -0.0004   +0.0227
  25  OA   -0.0220   -0.0239   -0.0007   -0.0003   +0.0030
  26  HD   +0.0137   +0.0013   -0.0054   -0.0003   +0.0181


Total Intramolecular Interaction Energy   = -0.466 kcal/mol


The internal energy of the unbound extended state was computed to be -0.466 kcal/mol

NOTE:   The AutoDock internal energy of the "extended" state was negative.

NOTE:   The unbound state was set to the "extended" state.



The internal energy of the unbound state was set to -0.466 kcal/mol



	FINAL UNBOUND STATE
	___________________


Detailed state:  trans 13.480 -7.809 12.437 quatxyzw 0.942354 0.217398 -0.253576 -0.020135 center -0.024 -0.005 0.105 ntor 6 -104.2815 21.5499 -15.9804 3.7016 -134.5760 164.4741
State:	 13.480  -7.809  12.437   0.943  0.217 -0.254 -177.693   -104.28   21.55  -15.98    3.70 -134.58  164.47

UNBOUND: MODEL        0
UNBOUND: USER    Run = 0
UNBOUND: USER    DPF = C:/Users/Admin/.mgltools/1.5.7/ws/dock.dpf
UNBOUND: USER  
UNBOUND: USER    (1) Final Intermolecular Energy     =   +0.00 kcal/mol
UNBOUND: USER        vdW + Hbond + desolv Energy     =   +0.00 kcal/mol
UNBOUND: USER        Electrostatic Energy            =   +0.00 kcal/mol
UNBOUND: USER    (2) Final Total Internal Energy     =   -0.47 kcal/mol
UNBOUND: USER    (3) Torsional Free Energy           =   +1.79 kcal/mol
UNBOUND: USER    (4) Unbound System's Energy         =   -0.47 kcal/mol
UNBOUND: USER    
UNBOUND: USER    
UNBOUND: USER    NEWDPF move CAT.pdbqt
UNBOUND: USER    NEWDPF about -0.024000 -0.005000 0.105000
UNBOUND: USER    NEWDPF tran0 13.480348 -7.808508 12.436755
UNBOUND: USER    NEWDPF quaternion0 0.942354 0.217398 -0.253576 -0.020135
UNBOUND: USER    NEWDPF axisangle0 0.942545 0.217442 -0.253628 -177.692597
UNBOUND: USER    NEWDPF quat0 0.942545 0.217442 -0.253628 -177.692597
UNBOUND: USER    NEWDPF dihe0 -104.28 21.55 -15.98 3.70 -134.58 164.47 
UNBOUND: USER  keepresnum = 1 
UNBOUND: USER  
UNBOUND: REMARK  6 active torsions:
UNBOUND: REMARK  status: ('A' for Active; 'I' for Inactive)
UNBOUND: REMARK    1  A    between atoms: O_2  and  C_7 
UNBOUND: REMARK    2  A    between atoms: O_3  and  C_13 
UNBOUND: REMARK    3  A    between atoms: O_4  and  C_18 
UNBOUND: REMARK    4  A    between atoms: O_5  and  C_19 
UNBOUND: REMARK    5  A    between atoms: O_6  and  C_21 
UNBOUND: REMARK    6  A    between atoms: C_8  and  C_12 
UNBOUND: USER                              x       y       z     vdW  Elec       q    Type
UNBOUND: USER                           _______ _______ _______ _____ _____    ______ ____
UNBOUND: ROOT
UNBOUND: ATOM      1  O   UNK     0      14.321  -8.192  12.580 +0.00 +0.00    -0.338 OA
UNBOUND: ATOM      2  C   UNK     0      12.750  -6.312  12.292 +0.00 +0.00    +0.156 C 
UNBOUND: ATOM      3  C   UNK     0      13.349  -7.363  13.237 +0.00 +0.00    +0.191 C 
UNBOUND: ATOM      4  C   UNK     0      13.866  -5.412  11.768 +0.00 +0.00    +0.079 C 
UNBOUND: ATOM      5  C   UNK     0      15.060  -6.217  11.354 +0.00 +0.00    +0.011 A 
UNBOUND: ATOM      6  C   UNK     0      15.223  -7.538  11.786 +0.00 +0.00    +0.081 A 
UNBOUND: ATOM      7  C   UNK     0      16.046  -5.636  10.544 +0.00 +0.00    +0.077 A 
UNBOUND: ATOM      8  C   UNK     0      16.337  -8.278  11.382 +0.00 +0.00    +0.074 A 
UNBOUND: ATOM      9  C   UNK     0      17.163  -6.374  10.152 +0.00 +0.00    +0.073 A 
UNBOUND: ATOM     10  C   UNK     0      17.307  -7.696  10.567 +0.00 +0.00    +0.071 A 
UNBOUND: ENDROOT
UNBOUND: BRANCH   3  11
UNBOUND: ATOM     11  C   UNK     0      12.285  -8.288  13.801 +0.00 +0.00    -0.024 A 
UNBOUND: ATOM     12  C   UNK     0      12.304  -8.625  15.152 +0.00 +0.00    +0.049 A 
UNBOUND: ATOM     13  C   UNK     0      11.327  -9.476  15.670 +0.00 +0.00    +0.099 A 
UNBOUND: ATOM     14  C   UNK     0      10.333  -9.986  14.835 +0.00 +0.00    +0.098 A 
UNBOUND: ATOM     15  C   UNK     0      10.317  -9.647  13.482 +0.00 +0.00    +0.040 A 
UNBOUND: ATOM     16  C   UNK     0      11.294  -8.797  12.965 +0.00 +0.00    +0.013 A 
UNBOUND: BRANCH  13  17
UNBOUND: ATOM     17  O   UNK     0      11.353  -9.799  16.992 +0.00 +0.00    -0.358 OA
UNBOUND: ATOM     18  H   UNK     0      11.688 -10.707  17.092 +0.00 +0.00    +0.217 HD
UNBOUND: ENDBRANCH  13  17
UNBOUND: BRANCH  14  19
UNBOUND: ATOM     19  O   UNK     0       9.373 -10.816  15.330 +0.00 +0.00    -0.358 OA
UNBOUND: ATOM     20  H   UNK     0       8.993 -11.332  14.597 +0.00 +0.00    +0.217 HD
UNBOUND: ENDBRANCH  14  19
UNBOUND: ENDBRANCH   3  11
UNBOUND: BRANCH   2  21
UNBOUND: ATOM     21  O   UNK     0      11.807  -5.510  12.994 +0.00 +0.00    -0.392 OA
UNBOUND: ATOM     22  H   UNK     0      11.656  -4.707  12.468 +0.00 +0.00    +0.210 HD
UNBOUND: ENDBRANCH   2  21
UNBOUND: BRANCH   7  23
UNBOUND: ATOM     23  O   UNK     0      15.935  -4.344  10.123 +0.00 +0.00    -0.360 OA
UNBOUND: ATOM     24  H   UNK     0      16.676  -4.137   9.528 +0.00 +0.00    +0.217 HD
UNBOUND: ENDBRANCH   7  23
UNBOUND: BRANCH  10  25
UNBOUND: ATOM     25  O   UNK     0      18.395  -8.416  10.181 +0.00 +0.00    -0.361 OA
UNBOUND: ATOM     26  H   UNK     0      19.192  -7.870  10.295 +0.00 +0.00    +0.217 HD
UNBOUND: ENDBRANCH  10  25
UNBOUND: TORSDOF 6
UNBOUND: TER
UNBOUND: ENDMDL
________________________________________________________________________________

DPF> ga_run 10                            # do this many hybrid GA-LS runs

centering ligand on specified point: -0.024 -0.005 0.105
Furthest true ligand atom from "about" center is 6.356 Angstroms (maxrad).
Number of requested GA dockings = 10 runs
Unbound model to be used is 'extended' [AutoDock 4.0 default].

	BEGINNING GENETIC ALGORITHM DOCKING 1 of 10
Run: 1 Seed: 1905202197 1043118985 [ Run 1 of 10 GA/GALS ]
Beginning LAMARCKIAN GENETIC ALGORITHM (LGA), with a maximum of 2500000 energy evaluations.

Final-Value: -9.847


	FINAL GENETIC ALGORITHM DOCKED STATE
	_______________________________________________


Detailed state:  trans 13.825 -2.550 4.661 quatxyzw -0.942303 -0.235454 -0.220164 -0.090296 center -0.024 -0.005 0.105 ntor 6 170.9302 -179.6902 0.6480 123.6403 54.8881 -7.5528
State:	 13.825  -2.550   4.661  -0.946 -0.236 -0.221 -169.639    170.93 -179.69    0.65  123.64   54.89   -7.55

DOCKED: MODEL        1
DOCKED: USER    Run = 1
DOCKED: USER    DPF = C:/Users/Admin/.mgltools/1.5.7/ws/dock.dpf
DOCKED: USER  
DOCKED: USER    Estimated Free Energy of Binding    =   -7.59 kcal/mol  [=(1)+(2)+(3)-(4)]
DOCKED: USER    Estimated Inhibition Constant, Ki   =    2.73 uM (micromolar)  [Temperature = 298.15 K]
DOCKED: USER    
DOCKED: USER    (1) Final Intermolecular Energy     =   -8.45 kcal/mol
DOCKED: USER        vdW + Hbond + desolv Energy     =   -8.36 kcal/mol
DOCKED: USER        Electrostatic Energy            =   -0.09 kcal/mol
DOCKED: USER    (2) Final Total Internal Energy     =   -1.39 kcal/mol
DOCKED: USER    (3) Torsional Free Energy           =   +1.79 kcal/mol
DOCKED: USER    (4) Unbound System's Energy         =   -0.47 kcal/mol
DOCKED: USER    
DOCKED: USER    
DOCKED: USER    NEWDPF move CAT.pdbqt
DOCKED: USER    NEWDPF about -0.024000 -0.005000 0.105000
DOCKED: USER    NEWDPF tran0 13.824958 -2.549681 4.660552
DOCKED: USER    NEWDPF quaternion0 -0.942303 -0.235454 -0.220164 -0.090296
DOCKED: USER    NEWDPF axisangle0 -0.946169 -0.236420 -0.221067 -169.638738
DOCKED: USER    NEWDPF quat0 -0.946169 -0.236420 -0.221067 -169.638738
DOCKED: USER    NEWDPF dihe0 170.93 -179.69 0.65 123.64 54.89 -7.55 
DOCKED: USER  keepresnum = 1 
DOCKED: USER  
DOCKED: REMARK  6 active torsions:
DOCKED: REMARK  status: ('A' for Active; 'I' for Inactive)
DOCKED: REMARK    1  A    between atoms: O_2  and  C_7 
DOCKED: REMARK    2  A    between atoms: O_3  and  C_13 
DOCKED: REMARK    3  A    between atoms: O_4  and  C_18 
DOCKED: REMARK    4  A    between atoms: O_5  and  C_19 
DOCKED: REMARK    5  A    between atoms: O_6  and  C_21 
DOCKED: REMARK    6  A    between atoms: C_8  and  C_12 
DOCKED: USER                              x       y       z     vdW  Elec       q    Type
DOCKED: USER                           _______ _______ _______ _____ _____    ______ ____
DOCKED: ROOT
DOCKED: ATOM      1  O   UNK     0      14.327  -3.105   5.221 -0.20 +0.11    -0.338 OA
DOCKED: ATOM      2  C   UNK     0      13.199  -1.001   4.597 -0.35 -0.05    +0.156 C 
DOCKED: ATOM      3  C   UNK     0      13.066  -2.418   5.173 -0.33 -0.07    +0.191 C 
DOCKED: ATOM      4  C   UNK     0      14.149  -0.189   5.474 -0.38 -0.03    +0.079 C 
DOCKED: ATOM      5  C   UNK     0      15.368  -0.984   5.830 -0.39 -0.00    +0.011 A 
DOCKED: ATOM      6  C   UNK     0      15.384  -2.377   5.697 -0.38 -0.03    +0.081 A 
DOCKED: ATOM      7  C   UNK     0      16.503  -0.333   6.332 -0.35 -0.03    +0.077 A 
DOCKED: ATOM      8  C   UNK     0      16.532  -3.103   6.025 -0.40 -0.02    +0.074 A 
DOCKED: ATOM      9  C   UNK     0      17.645  -1.061   6.669 -0.43 -0.02    +0.073 A 
DOCKED: ATOM     10  C   UNK     0      17.661  -2.445   6.511 -0.40 -0.02    +0.071 A 
DOCKED: ENDROOT
DOCKED: BRANCH   3  11
DOCKED: ATOM     11  C   UNK     0      12.124  -3.277   4.349 -0.45 +0.01    -0.024 A 
DOCKED: ATOM     12  C   UNK     0      12.304  -3.378   2.971 -0.48 -0.01    +0.049 A 
DOCKED: ATOM     13  C   UNK     0      11.437  -4.168   2.214 -0.40 -0.02    +0.099 A 
DOCKED: ATOM     14  C   UNK     0      10.393  -4.853   2.837 -0.43 -0.02    +0.098 A 
DOCKED: ATOM     15  C   UNK     0      10.216  -4.749   4.216 -0.54 -0.01    +0.040 A 
DOCKED: ATOM     16  C   UNK     0      11.082  -3.960   4.973 -0.53 -0.00    +0.013 A 
DOCKED: BRANCH  13  17
DOCKED: ATOM     17  O   UNK     0      11.621  -4.262   0.868 -0.48 +0.08    -0.358 OA
DOCKED: ATOM     18  H   UNK     0      11.035  -4.954   0.515 +0.21 -0.03    +0.217 HD
DOCKED: ENDBRANCH  13  17
DOCKED: BRANCH  14  19
DOCKED: ATOM     19  O   UNK     0       9.542  -5.627   2.107 -0.36 +0.07    -0.358 OA
DOCKED: ATOM     20  H   UNK     0       9.808  -5.593   1.172 +0.18 -0.03    +0.217 HD
DOCKED: ENDBRANCH  14  19
DOCKED: ENDBRANCH   3  11
DOCKED: BRANCH   2  21
DOCKED: ATOM     21  O   UNK     0      11.928  -0.362   4.586 -0.29 +0.09    -0.392 OA
DOCKED: ATOM     22  H   UNK     0      12.053   0.532   4.223 +0.11 -0.05    +0.210 HD
DOCKED: ENDBRANCH   2  21
DOCKED: BRANCH   7  23
DOCKED: ATOM     23  O   UNK     0      16.518   1.020   6.500 -0.21 +0.16    -0.360 OA
DOCKED: ATOM     24  H   UNK     0      16.310   1.450   5.653 -0.31 -0.16    +0.217 HD
DOCKED: ENDBRANCH   7  23
DOCKED: BRANCH  10  25
DOCKED: ATOM     25  O   UNK     0      18.776  -3.155   6.837 -0.33 +0.14    -0.361 OA
DOCKED: ATOM     26  H   UNK     0      19.047  -3.685   6.068 -0.43 -0.13    +0.217 HD
DOCKED: ENDBRANCH  10  25
DOCKED: TORSDOF 6
DOCKED: TER
DOCKED: ENDMDL
________________________________________________________________________________


	BEGINNING GENETIC ALGORITHM DOCKING 2 of 10
Run: 2 Seed: 172836686 533832232 [ Run 2 of 10 GA/GALS ]
Beginning LAMARCKIAN GENETIC ALGORITHM (LGA), with a maximum of 2500000 energy evaluations.

Final-Value: -11.449


	FINAL GENETIC ALGORITHM DOCKED STATE
	_______________________________________________


Detailed state:  trans 14.840 -3.270 6.293 quatxyzw -0.264483 0.593142 0.752252 -0.111123 center -0.024 -0.005 0.105 ntor 6 -165.0639 177.5777 174.2477 169.2067 -29.6284 148.9569
State:	 14.840  -3.270   6.293  -0.266  0.597  0.757 -167.240   -165.06  177.58  174.25  169.21  -29.63  148.96

DOCKED: MODEL        2
DOCKED: USER    Run = 2
DOCKED: USER    DPF = C:/Users/Admin/.mgltools/1.5.7/ws/dock.dpf
DOCKED: USER  
DOCKED: USER    Estimated Free Energy of Binding    =   -9.19 kcal/mol  [=(1)+(2)+(3)-(4)]
DOCKED: USER    Estimated Inhibition Constant, Ki   =  182.55 nM (nanomolar)  [Temperature = 298.15 K]
DOCKED: USER    
DOCKED: USER    (1) Final Intermolecular Energy     =  -10.10 kcal/mol
DOCKED: USER        vdW + Hbond + desolv Energy     =   -9.87 kcal/mol
DOCKED: USER        Electrostatic Energy            =   -0.24 kcal/mol
DOCKED: USER    (2) Final Total Internal Energy     =   -1.35 kcal/mol
DOCKED: USER    (3) Torsional Free Energy           =   +1.79 kcal/mol
DOCKED: USER    (4) Unbound System's Energy         =   -0.47 kcal/mol
DOCKED: USER    
DOCKED: USER    
DOCKED: USER    NEWDPF move CAT.pdbqt
DOCKED: USER    NEWDPF about -0.024000 -0.005000 0.105000
DOCKED: USER    NEWDPF tran0 14.839898 -3.269613 6.293397
DOCKED: USER    NEWDPF quaternion0 -0.264483 0.593142 0.752252 -0.111123
DOCKED: USER    NEWDPF axisangle0 -0.266131 0.596839 0.756940 -167.239941
DOCKED: USER    NEWDPF quat0 -0.266131 0.596839 0.756940 -167.239941
DOCKED: USER    NEWDPF dihe0 -165.06 177.58 174.25 169.21 -29.63 148.96 
DOCKED: USER  keepresnum = 1 
DOCKED: USER  
DOCKED: REMARK  6 active torsions:
DOCKED: REMARK  status: ('A' for Active; 'I' for Inactive)
DOCKED: REMARK    1  A    between atoms: O_2  and  C_7 
DOCKED: REMARK    2  A    between atoms: O_3  and  C_13 
DOCKED: REMARK    3  A    between atoms: O_4  and  C_18 
DOCKED: REMARK    4  A    between atoms: O_5  and  C_19 
DOCKED: REMARK    5  A    between atoms: O_6  and  C_21 
DOCKED: REMARK    6  A    between atoms: C_8  and  C_12 
DOCKED: USER                              x       y       z     vdW  Elec       q    Type
DOCKED: USER                           _______ _______ _______ _____ _____    ______ ____
DOCKED: ROOT
DOCKED: ATOM      1  O   UNK     0      14.272  -3.960   6.569 -0.26 +0.12    -0.338 OA
DOCKED: ATOM      2  C   UNK     0      15.483  -2.601   4.903 -0.41 -0.04    +0.156 C 
DOCKED: ATOM      3  C   UNK     0      15.537  -3.750   5.920 -0.39 -0.05    +0.191 C 
DOCKED: ATOM      4  C   UNK     0      14.448  -2.926   3.830 -0.45 -0.02    +0.079 C 
DOCKED: ATOM      5  C   UNK     0      13.188  -3.463   4.440 -0.42 -0.00    +0.011 A 
DOCKED: ATOM      6  C   UNK     0      13.174  -3.952   5.751 -0.36 -0.03    +0.081 A 
DOCKED: ATOM      7  C   UNK     0      12.009  -3.504   3.683 -0.42 -0.02    +0.077 A 
DOCKED: ATOM      8  C   UNK     0      11.990  -4.440   6.308 -0.47 -0.02    +0.074 A 
DOCKED: ATOM      9  C   UNK     0      10.830  -4.002   4.238 -0.47 -0.02    +0.073 A 
DOCKED: ATOM     10  C   UNK     0      10.819  -4.466   5.551 -0.51 -0.02    +0.071 A 
DOCKED: ENDROOT
DOCKED: BRANCH   3  11
DOCKED: ATOM     11  C   UNK     0      16.559  -3.492   7.012 -0.48 +0.01    -0.024 A 
DOCKED: ATOM     12  C   UNK     0      17.176  -4.563   7.652 -0.33 -0.01    +0.049 A 
DOCKED: ATOM     13  C   UNK     0      18.115  -4.325   8.657 -0.44 -0.03    +0.099 A 
DOCKED: ATOM     14  C   UNK     0      18.433  -3.015   9.018 -0.51 -0.04    +0.098 A 
DOCKED: ATOM     15  C   UNK     0      17.812  -1.945   8.376 -0.48 -0.01    +0.040 A 
DOCKED: ATOM     16  C   UNK     0      16.874  -2.183   7.372 -0.48 -0.00    +0.013 A 
DOCKED: BRANCH  13  17
DOCKED: ATOM     17  O   UNK     0      18.715  -5.379   9.276 -0.34 +0.20    -0.358 OA
DOCKED: ATOM     18  H   UNK     0      19.149  -5.065  10.089 -0.40 -0.21    +0.217 HD
DOCKED: ENDBRANCH  13  17
DOCKED: BRANCH  14  19
DOCKED: ATOM     19  O   UNK     0      19.348  -2.771   9.997 -0.35 +0.24    -0.358 OA
DOCKED: ATOM     20  H   UNK     0      19.653  -3.620  10.363 -0.34 -0.23    +0.217 HD
DOCKED: ENDBRANCH  14  19
DOCKED: ENDBRANCH   3  11
DOCKED: BRANCH   2  21
DOCKED: ATOM     21  O   UNK     0      16.754  -2.446   4.280 -0.53 +0.03    -0.392 OA
DOCKED: ATOM     22  H   UNK     0      17.376  -3.040   4.734 -0.47 -0.11    +0.210 HD
DOCKED: ENDBRANCH   2  21
DOCKED: BRANCH   7  23
DOCKED: ATOM     23  O   UNK     0      11.988  -3.059   2.394 -0.34 +0.11    -0.360 OA
DOCKED: ATOM     24  H   UNK     0      12.819  -2.590   2.204 -0.00 -0.10    +0.217 HD
DOCKED: ENDBRANCH   7  23
DOCKED: BRANCH  10  25
DOCKED: ATOM     25  O   UNK     0       9.668  -4.949   6.093 -0.37 +0.07    -0.361 OA
DOCKED: ATOM     26  H   UNK     0       9.891  -5.623   6.758 +0.15 -0.04    +0.217 HD
DOCKED: ENDBRANCH  10  25
DOCKED: TORSDOF 6
DOCKED: TER
DOCKED: ENDMDL
________________________________________________________________________________


	BEGINNING GENETIC ALGORITHM DOCKING 3 of 10
Run: 3 Seed: 1036728444 2013866504 [ Run 3 of 10 GA/GALS ]
Beginning LAMARCKIAN GENETIC ALGORITHM (LGA), with a maximum of 2500000 energy evaluations.

Final-Value: -11.453


	FINAL GENETIC ALGORITHM DOCKED STATE
	_______________________________________________


Detailed state:  trans 14.849 -3.314 6.305 quatxyzw 0.277310 -0.596878 -0.746401 0.098593 center -0.024 -0.005 0.105 ntor 6 -174.5869 167.9788 176.4443 163.5566 -16.4414 148.5380
State:	 14.849  -3.314   6.305   0.279 -0.600 -0.750 168.684   -174.59  167.98  176.44  163.56  -16.44  148.54

DOCKED: MODEL        3
DOCKED: USER    Run = 3
DOCKED: USER    DPF = C:/Users/Admin/.mgltools/1.5.7/ws/dock.dpf
DOCKED: USER  
DOCKED: USER    Estimated Free Energy of Binding    =   -9.20 kcal/mol  [=(1)+(2)+(3)-(4)]
DOCKED: USER    Estimated Inhibition Constant, Ki   =  181.15 nM (nanomolar)  [Temperature = 298.15 K]
DOCKED: USER    
DOCKED: USER    (1) Final Intermolecular Energy     =  -10.10 kcal/mol
DOCKED: USER        vdW + Hbond + desolv Energy     =   -9.86 kcal/mol
DOCKED: USER        Electrostatic Energy            =   -0.24 kcal/mol
DOCKED: USER    (2) Final Total Internal Energy     =   -1.35 kcal/mol
DOCKED: USER    (3) Torsional Free Energy           =   +1.79 kcal/mol
DOCKED: USER    (4) Unbound System's Energy         =   -0.47 kcal/mol
DOCKED: USER    
DOCKED: USER    
DOCKED: USER    NEWDPF move CAT.pdbqt
DOCKED: USER    NEWDPF about -0.024000 -0.005000 0.105000
DOCKED: USER    NEWDPF tran0 14.848602 -3.314196 6.305227
DOCKED: USER    NEWDPF quaternion0 0.277310 -0.596878 -0.746401 0.098593
DOCKED: USER    NEWDPF axisangle0 0.278668 -0.599800 -0.750056 168.683657
DOCKED: USER    NEWDPF quat0 0.278668 -0.599800 -0.750056 168.683657
DOCKED: USER    NEWDPF dihe0 -174.59 167.98 176.44 163.56 -16.44 148.54 
DOCKED: USER  keepresnum = 1 
DOCKED: USER  
DOCKED: REMARK  6 active torsions:
DOCKED: REMARK  status: ('A' for Active; 'I' for Inactive)
DOCKED: REMARK    1  A    between atoms: O_2  and  C_7 
DOCKED: REMARK    2  A    between atoms: O_3  and  C_13 
DOCKED: REMARK    3  A    between atoms: O_4  and  C_18 
DOCKED: REMARK    4  A    between atoms: O_5  and  C_19 
DOCKED: REMARK    5  A    between atoms: O_6  and  C_21 
DOCKED: REMARK    6  A    between atoms: C_8  and  C_12 
DOCKED: USER                              x       y       z     vdW  Elec       q    Type
DOCKED: USER                           _______ _______ _______ _____ _____    ______ ____
DOCKED: ROOT
DOCKED: ATOM      1  O   UNK     0      14.300  -4.015   6.592 -0.27 +0.12    -0.338 OA
DOCKED: ATOM      2  C   UNK     0      15.481  -2.657   4.905 -0.42 -0.04    +0.156 C 
DOCKED: ATOM      3  C   UNK     0      15.563  -3.781   5.947 -0.39 -0.05    +0.191 C 
DOCKED: ATOM      4  C   UNK     0      14.463  -3.037   3.833 -0.43 -0.02    +0.079 C 
DOCKED: ATOM      5  C   UNK     0      13.217  -3.599   4.446 -0.41 -0.00    +0.011 A 
DOCKED: ATOM      6  C   UNK     0      13.209  -4.060   5.767 -0.37 -0.03    +0.081 A 
DOCKED: ATOM      7  C   UNK     0      12.045  -3.693   3.683 -0.42 -0.02    +0.077 A 
DOCKED: ATOM      8  C   UNK     0      12.036  -4.572   6.328 -0.47 -0.02    +0.074 A 
DOCKED: ATOM      9  C   UNK     0      10.878  -4.215   4.241 -0.47 -0.02    +0.073 A 
DOCKED: ATOM     10  C   UNK     0      10.871  -4.650   5.564 -0.50 -0.02    +0.071 A 
DOCKED: ENDROOT
DOCKED: BRANCH   3  11
DOCKED: ATOM     11  C   UNK     0      16.568  -3.467   7.040 -0.48 +0.01    -0.024 A 
DOCKED: ATOM     12  C   UNK     0      17.208  -4.505   7.713 -0.37 -0.01    +0.049 A 
DOCKED: ATOM     13  C   UNK     0      18.131  -4.216   8.718 -0.45 -0.03    +0.099 A 
DOCKED: ATOM     14  C   UNK     0      18.413  -2.890   9.047 -0.51 -0.04    +0.098 A 
DOCKED: ATOM     15  C   UNK     0      17.770  -1.853   8.371 -0.46 -0.01    +0.040 A 
DOCKED: ATOM     16  C   UNK     0      16.847  -2.142   7.366 -0.48 -0.00    +0.013 A 
DOCKED: BRANCH  13  17
DOCKED: ATOM     17  O   UNK     0      18.753  -5.237   9.370 -0.30 +0.21    -0.358 OA
DOCKED: ATOM     18  H   UNK     0      19.296  -4.871  10.091 -0.40 -0.22    +0.217 HD
DOCKED: ENDBRANCH  13  17
DOCKED: BRANCH  14  19
DOCKED: ATOM     19  O   UNK     0      19.314  -2.596  10.025 -0.37 +0.22    -0.358 OA
DOCKED: ATOM     20  H   UNK     0      19.522  -3.409  10.517 -0.34 -0.22    +0.217 HD
DOCKED: ENDBRANCH  14  19
DOCKED: ENDBRANCH   3  11
DOCKED: BRANCH   2  21
DOCKED: ATOM     21  O   UNK     0      16.750  -2.477   4.287 -0.55 +0.03    -0.392 OA
DOCKED: ATOM     22  H   UNK     0      17.380  -3.067   4.734 -0.47 -0.11    +0.210 HD
DOCKED: ENDBRANCH   2  21
DOCKED: BRANCH   7  23
DOCKED: ATOM     23  O   UNK     0      12.019  -3.277   2.384 -0.36 +0.10    -0.360 OA
DOCKED: ATOM     24  H   UNK     0      12.792  -2.712   2.214 +0.03 -0.09    +0.217 HD
DOCKED: ENDBRANCH   7  23
DOCKED: BRANCH  10  25
DOCKED: ATOM     25  O   UNK     0       9.732  -5.156   6.110 -0.35 +0.07    -0.361 OA
DOCKED: ATOM     26  H   UNK     0       9.960  -5.642   6.920 +0.15 -0.04    +0.217 HD
DOCKED: ENDBRANCH  10  25
DOCKED: TORSDOF 6
DOCKED: TER
DOCKED: ENDMDL
________________________________________________________________________________


	BEGINNING GENETIC ALGORITHM DOCKING 4 of 10
Run: 4 Seed: 1226169401 1441933597 [ Run 4 of 10 GA/GALS ]
Beginning LAMARCKIAN GENETIC ALGORITHM (LGA), with a maximum of 2500000 energy evaluations.

Final-Value: -11.438


	FINAL GENETIC ALGORITHM DOCKED STATE
	_______________________________________________


Detailed state:  trans 14.856 -3.278 6.283 quatxyzw -0.275170 0.577519 0.761560 -0.103827 center -0.024 -0.005 0.105 ntor 6 -166.9975 172.8551 176.1991 169.0050 -7.0101 147.0663
State:	 14.856  -3.278   6.283  -0.277  0.581  0.766 -168.081   -167.00  172.86  176.20  169.01   -7.01  147.07

DOCKED: MODEL        4
DOCKED: USER    Run = 4
DOCKED: USER    DPF = C:/Users/Admin/.mgltools/1.5.7/ws/dock.dpf
DOCKED: USER  
DOCKED: USER    Estimated Free Energy of Binding    =   -9.18 kcal/mol  [=(1)+(2)+(3)-(4)]
DOCKED: USER    Estimated Inhibition Constant, Ki   =  185.83 nM (nanomolar)  [Temperature = 298.15 K]
DOCKED: USER    
DOCKED: USER    (1) Final Intermolecular Energy     =  -10.10 kcal/mol
DOCKED: USER        vdW + Hbond + desolv Energy     =   -9.86 kcal/mol
DOCKED: USER        Electrostatic Energy            =   -0.23 kcal/mol
DOCKED: USER    (2) Final Total Internal Energy     =   -1.34 kcal/mol
DOCKED: USER    (3) Torsional Free Energy           =   +1.79 kcal/mol
DOCKED: USER    (4) Unbound System's Energy         =   -0.47 kcal/mol
DOCKED: USER    
DOCKED: USER    
DOCKED: USER    NEWDPF move CAT.pdbqt
DOCKED: USER    NEWDPF about -0.024000 -0.005000 0.105000
DOCKED: USER    NEWDPF tran0 14.855743 -3.277553 6.283412
DOCKED: USER    NEWDPF quaternion0 -0.275170 0.577519 0.761560 -0.103827
DOCKED: USER    NEWDPF axisangle0 -0.276665 0.580657 0.765698 -168.080842
DOCKED: USER    NEWDPF quat0 -0.276665 0.580657 0.765698 -168.080842
DOCKED: USER    NEWDPF dihe0 -167.00 172.86 176.20 169.01 -7.01 147.07 
DOCKED: USER  keepresnum = 1 
DOCKED: USER  
DOCKED: REMARK  6 active torsions:
DOCKED: REMARK  status: ('A' for Active; 'I' for Inactive)
DOCKED: REMARK    1  A    between atoms: O_2  and  C_7 
DOCKED: REMARK    2  A    between atoms: O_3  and  C_13 
DOCKED: REMARK    3  A    between atoms: O_4  and  C_18 
DOCKED: REMARK    4  A    between atoms: O_5  and  C_19 
DOCKED: REMARK    5  A    between atoms: O_6  and  C_21 
DOCKED: REMARK    6  A    between atoms: C_8  and  C_12 
DOCKED: USER                              x       y       z     vdW  Elec       q    Type
DOCKED: USER                           _______ _______ _______ _____ _____    ______ ____
DOCKED: ROOT
DOCKED: ATOM      1  O   UNK     0      14.310  -3.994   6.535 -0.27 +0.12    -0.338 OA
DOCKED: ATOM      2  C   UNK     0      15.484  -2.549   4.917 -0.41 -0.04    +0.156 C 
DOCKED: ATOM      3  C   UNK     0      15.571  -3.723   5.901 -0.39 -0.05    +0.191 C 
DOCKED: ATOM      4  C   UNK     0      14.466  -2.877   3.829 -0.45 -0.02    +0.079 C 
DOCKED: ATOM      5  C   UNK     0      13.222  -3.474   4.415 -0.42 -0.00    +0.011 A 
DOCKED: ATOM      6  C   UNK     0      13.217  -4.001   5.711 -0.37 -0.03    +0.081 A 
DOCKED: ATOM      7  C   UNK     0      12.049  -3.533   3.649 -0.42 -0.02    +0.077 A 
DOCKED: ATOM      8  C   UNK     0      12.047  -4.544   6.247 -0.47 -0.02    +0.074 A 
DOCKED: ATOM      9  C   UNK     0      10.884  -4.087   4.182 -0.46 -0.02    +0.073 A 
DOCKED: ATOM     10  C   UNK     0      10.882  -4.588   5.482 -0.50 -0.02    +0.071 A 
DOCKED: ENDROOT
DOCKED: BRANCH   3  11
DOCKED: ATOM     11  C   UNK     0      16.577  -3.462   7.007 -0.48 +0.01    -0.024 A 
DOCKED: ATOM     12  C   UNK     0      17.198  -4.531   7.647 -0.35 -0.01    +0.049 A 
DOCKED: ATOM     13  C   UNK     0      18.123  -4.289   8.664 -0.45 -0.03    +0.099 A 
DOCKED: ATOM     14  C   UNK     0      18.423  -2.979   9.037 -0.51 -0.04    +0.098 A 
DOCKED: ATOM     15  C   UNK     0      17.799  -1.911   8.394 -0.47 -0.01    +0.040 A 
DOCKED: ATOM     16  C   UNK     0      16.875  -2.152   7.378 -0.48 -0.00    +0.013 A 
DOCKED: BRANCH  13  17
DOCKED: ATOM     17  O   UNK     0      18.726  -5.341   9.284 -0.33 +0.20    -0.358 OA
DOCKED: ATOM     18  H   UNK     0      19.174  -5.023  10.088 -0.40 -0.21    +0.217 HD
DOCKED: ENDBRANCH  13  17
DOCKED: BRANCH  14  19
DOCKED: ATOM     19  O   UNK     0      19.325  -2.732  10.028 -0.36 +0.23    -0.358 OA
DOCKED: ATOM     20  H   UNK     0      19.577  -3.575  10.443 -0.35 -0.23    +0.217 HD
DOCKED: ENDBRANCH  14  19
DOCKED: ENDBRANCH   3  11
DOCKED: BRANCH   2  21
DOCKED: ATOM     21  O   UNK     0      16.751  -2.333   4.307 -0.49 +0.03    -0.392 OA
DOCKED: ATOM     22  H   UNK     0      17.385  -2.940   4.726 -0.47 -0.11    +0.210 HD
DOCKED: ENDBRANCH   2  21
DOCKED: BRANCH   7  23
DOCKED: ATOM     23  O   UNK     0      12.020  -3.053   2.373 -0.34 +0.11    -0.360 OA
DOCKED: ATOM     24  H   UNK     0      12.834  -2.548   2.203 -0.02 -0.10    +0.217 HD
DOCKED: ENDBRANCH   7  23
DOCKED: BRANCH  10  25
DOCKED: ATOM     25  O   UNK     0       9.745  -5.125   6.003 -0.35 +0.07    -0.361 OA
DOCKED: ATOM     26  H   UNK     0       9.952  -5.523   6.866 +0.15 -0.04    +0.217 HD
DOCKED: ENDBRANCH  10  25
DOCKED: TORSDOF 6
DOCKED: TER
DOCKED: ENDMDL
________________________________________________________________________________


	BEGINNING GENETIC ALGORITHM DOCKING 5 of 10
Run: 5 Seed: 2053411862 1949010753 [ Run 5 of 10 GA/GALS ]
Beginning LAMARCKIAN GENETIC ALGORITHM (LGA), with a maximum of 2500000 energy evaluations.

Final-Value: -11.457


	FINAL GENETIC ALGORITHM DOCKED STATE
	_______________________________________________


Detailed state:  trans 14.825 -3.241 6.279 quatxyzw -0.280523 0.594151 0.746579 -0.104457 center -0.024 -0.005 0.105 ntor 6 -170.8301 172.6619 174.6322 165.8195 -19.4675 150.9992
State:	 14.825  -3.241   6.279  -0.282  0.597  0.751 -168.008   -170.83  172.66  174.63  165.82  -19.47  151.00

DOCKED: MODEL        5
DOCKED: USER    Run = 5
DOCKED: USER    DPF = C:/Users/Admin/.mgltools/1.5.7/ws/dock.dpf
DOCKED: USER  
DOCKED: USER    Estimated Free Energy of Binding    =   -9.20 kcal/mol  [=(1)+(2)+(3)-(4)]
DOCKED: USER    Estimated Inhibition Constant, Ki   =  180.06 nM (nanomolar)  [Temperature = 298.15 K]
DOCKED: USER    
DOCKED: USER    (1) Final Intermolecular Energy     =  -10.09 kcal/mol
DOCKED: USER        vdW + Hbond + desolv Energy     =   -9.86 kcal/mol
DOCKED: USER        Electrostatic Energy            =   -0.23 kcal/mol
DOCKED: USER    (2) Final Total Internal Energy     =   -1.36 kcal/mol
DOCKED: USER    (3) Torsional Free Energy           =   +1.79 kcal/mol
DOCKED: USER    (4) Unbound System's Energy         =   -0.47 kcal/mol
DOCKED: USER    
DOCKED: USER    
DOCKED: USER    NEWDPF move CAT.pdbqt
DOCKED: USER    NEWDPF about -0.024000 -0.005000 0.105000
DOCKED: USER    NEWDPF tran0 14.825110 -3.240611 6.278644
DOCKED: USER    NEWDPF quaternion0 -0.280523 0.594151 0.746579 -0.104457
DOCKED: USER    NEWDPF axisangle0 -0.282066 0.597419 0.750686 -168.008256
DOCKED: USER    NEWDPF quat0 -0.282066 0.597419 0.750686 -168.008256
DOCKED: USER    NEWDPF dihe0 -170.83 172.66 174.63 165.82 -19.47 151.00 
DOCKED: USER  keepresnum = 1 
DOCKED: USER  
DOCKED: REMARK  6 active torsions:
DOCKED: REMARK  status: ('A' for Active; 'I' for Inactive)
DOCKED: REMARK    1  A    between atoms: O_2  and  C_7 
DOCKED: REMARK    2  A    between atoms: O_3  and  C_13 
DOCKED: REMARK    3  A    between atoms: O_4  and  C_18 
DOCKED: REMARK    4  A    between atoms: O_5  and  C_19 
DOCKED: REMARK    5  A    between atoms: O_6  and  C_21 
DOCKED: REMARK    6  A    between atoms: C_8  and  C_12 
DOCKED: USER                              x       y       z     vdW  Elec       q    Type
DOCKED: USER                           _______ _______ _______ _____ _____    ______ ____
DOCKED: ROOT
DOCKED: ATOM      1  O   UNK     0      14.271  -3.942   6.554 -0.26 +0.12    -0.338 OA
DOCKED: ATOM      2  C   UNK     0      15.477  -2.576   4.890 -0.41 -0.04    +0.156 C 
DOCKED: ATOM      3  C   UNK     0      15.542  -3.707   5.926 -0.39 -0.05    +0.191 C 
DOCKED: ATOM      4  C   UNK     0      14.471  -2.945   3.804 -0.43 -0.02    +0.079 C 
DOCKED: ATOM      5  C   UNK     0      13.215  -3.507   4.398 -0.42 -0.00    +0.011 A 
DOCKED: ATOM      6  C   UNK     0      13.189  -3.977   5.715 -0.37 -0.03    +0.081 A 
DOCKED: ATOM      7  C   UNK     0      12.052  -3.592   3.619 -0.42 -0.02    +0.077 A 
DOCKED: ATOM      8  C   UNK     0      12.008  -4.489   6.258 -0.47 -0.02    +0.074 A 
DOCKED: ATOM      9  C   UNK     0      10.877  -4.113   4.160 -0.46 -0.02    +0.073 A 
DOCKED: ATOM     10  C   UNK     0      10.853  -4.558   5.479 -0.50 -0.02    +0.071 A 
DOCKED: ENDROOT
DOCKED: BRANCH   3  11
DOCKED: ATOM     11  C   UNK     0      16.535  -3.405   7.033 -0.48 +0.01    -0.024 A 
DOCKED: ATOM     12  C   UNK     0      17.201  -4.447   7.672 -0.39 -0.01    +0.049 A 
DOCKED: ATOM     13  C   UNK     0      18.113  -4.168   8.691 -0.45 -0.03    +0.099 A 
DOCKED: ATOM     14  C   UNK     0      18.357  -2.847   9.066 -0.51 -0.04    +0.098 A 
DOCKED: ATOM     15  C   UNK     0      17.688  -1.805   8.425 -0.43 -0.01    +0.040 A 
DOCKED: ATOM     16  C   UNK     0      16.776  -2.084   7.407 -0.47 -0.00    +0.013 A 
DOCKED: BRANCH  13  17
DOCKED: ATOM     17  O   UNK     0      18.761  -5.194   9.309 -0.32 +0.21    -0.358 OA
DOCKED: ATOM     18  H   UNK     0      19.244  -4.847  10.080 -0.40 -0.22    +0.217 HD
DOCKED: ENDBRANCH  13  17
DOCKED: BRANCH  14  19
DOCKED: ATOM     19  O   UNK     0      19.246  -2.563  10.058 -0.38 +0.22    -0.358 OA
DOCKED: ATOM     20  H   UNK     0      19.532  -3.395  10.474 -0.33 -0.22    +0.217 HD
DOCKED: ENDBRANCH  14  19
DOCKED: ENDBRANCH   3  11
DOCKED: BRANCH   2  21
DOCKED: ATOM     21  O   UNK     0      16.754  -2.396   4.289 -0.51 +0.03    -0.392 OA
DOCKED: ATOM     22  H   UNK     0      17.382  -2.969   4.759 -0.47 -0.11    +0.210 HD
DOCKED: ENDBRANCH   2  21
DOCKED: BRANCH   7  23
DOCKED: ATOM     23  O   UNK     0      12.044  -3.167   2.324 -0.35 +0.11    -0.360 OA
DOCKED: ATOM     24  H   UNK     0      12.840  -2.633   2.157 -0.01 -0.10    +0.217 HD
DOCKED: ENDBRANCH   7  23
DOCKED: BRANCH  10  25
DOCKED: ATOM     25  O   UNK     0       9.705  -5.064   6.008 -0.36 +0.07    -0.361 OA
DOCKED: ATOM     26  H   UNK     0       9.927  -5.596   6.791 +0.15 -0.04    +0.217 HD
DOCKED: ENDBRANCH  10  25
DOCKED: TORSDOF 6
DOCKED: TER
DOCKED: ENDMDL
________________________________________________________________________________


	BEGINNING GENETIC ALGORITHM DOCKING 6 of 10
Run: 6 Seed: 732719129 330155394 [ Run 6 of 10 GA/GALS ]
Beginning LAMARCKIAN GENETIC ALGORITHM (LGA), with a maximum of 2500000 energy evaluations.

Final-Value: -11.453


	FINAL GENETIC ALGORITHM DOCKED STATE
	_______________________________________________


Detailed state:  trans 14.796 -3.184 6.291 quatxyzw 0.269357 -0.608194 -0.737791 0.114936 center -0.024 -0.005 0.105 ntor 6 -161.1901 173.2412 178.1214 163.8943 -40.6148 155.2804
State:	 14.796  -3.184   6.291   0.271 -0.612 -0.743 166.800   -161.19  173.24  178.12  163.89  -40.61  155.28

DOCKED: MODEL        6
DOCKED: USER    Run = 6
DOCKED: USER    DPF = C:/Users/Admin/.mgltools/1.5.7/ws/dock.dpf
DOCKED: USER  
DOCKED: USER    Estimated Free Energy of Binding    =   -9.20 kcal/mol  [=(1)+(2)+(3)-(4)]
DOCKED: USER    Estimated Inhibition Constant, Ki   =  181.36 nM (nanomolar)  [Temperature = 298.15 K]
DOCKED: USER    
DOCKED: USER    (1) Final Intermolecular Energy     =  -10.12 kcal/mol
DOCKED: USER        vdW + Hbond + desolv Energy     =   -9.89 kcal/mol
DOCKED: USER        Electrostatic Energy            =   -0.23 kcal/mol
DOCKED: USER    (2) Final Total Internal Energy     =   -1.33 kcal/mol
DOCKED: USER    (3) Torsional Free Energy           =   +1.79 kcal/mol
DOCKED: USER    (4) Unbound System's Energy         =   -0.47 kcal/mol
DOCKED: USER    
DOCKED: USER    
DOCKED: USER    NEWDPF move CAT.pdbqt
DOCKED: USER    NEWDPF about -0.024000 -0.005000 0.105000
DOCKED: USER    NEWDPF tran0 14.796248 -3.183936 6.291305
DOCKED: USER    NEWDPF quaternion0 0.269357 -0.608194 -0.737791 0.114936
DOCKED: USER    NEWDPF axisangle0 0.271154 -0.612252 -0.742714 166.800129
DOCKED: USER    NEWDPF quat0 0.271154 -0.612252 -0.742714 166.800129
DOCKED: USER    NEWDPF dihe0 -161.19 173.24 178.12 163.89 -40.61 155.28 
DOCKED: USER  keepresnum = 1 
DOCKED: USER  
DOCKED: REMARK  6 active torsions:
DOCKED: REMARK  status: ('A' for Active; 'I' for Inactive)
DOCKED: REMARK    1  A    between atoms: O_2  and  C_7 
DOCKED: REMARK    2  A    between atoms: O_3  and  C_13 
DOCKED: REMARK    3  A    between atoms: O_4  and  C_18 
DOCKED: REMARK    4  A    between atoms: O_5  and  C_19 
DOCKED: REMARK    5  A    between atoms: O_6  and  C_21 
DOCKED: REMARK    6  A    between atoms: C_8  and  C_12 
DOCKED: USER                              x       y       z     vdW  Elec       q    Type
DOCKED: USER                           _______ _______ _______ _____ _____    ______ ____
DOCKED: ROOT
DOCKED: ATOM      1  O   UNK     0      14.216  -3.856   6.584 -0.24 +0.13    -0.338 OA
DOCKED: ATOM      2  C   UNK     0      15.469  -2.577   4.887 -0.41 -0.04    +0.156 C 
DOCKED: ATOM      3  C   UNK     0      15.494  -3.686   5.948 -0.39 -0.05    +0.191 C 
DOCKED: ATOM      4  C   UNK     0      14.447  -2.932   3.811 -0.44 -0.02    +0.079 C 
DOCKED: ATOM      5  C   UNK     0      13.172  -3.431   4.420 -0.43 -0.00    +0.011 A 
DOCKED: ATOM      6  C   UNK     0      13.132  -3.869   5.748 -0.35 -0.03    +0.081 A 
DOCKED: ATOM      7  C   UNK     0      12.005  -3.489   3.646 -0.42 -0.02    +0.077 A 
DOCKED: ATOM      8  C   UNK     0      11.933  -4.322   6.305 -0.46 -0.02    +0.074 A 
DOCKED: ATOM      9  C   UNK     0      10.812  -3.952   4.200 -0.47 -0.02    +0.073 A 
DOCKED: ATOM     10  C   UNK     0      10.774  -4.365   5.530 -0.52 -0.02    +0.071 A 
DOCKED: ENDROOT
DOCKED: BRANCH   3  11
DOCKED: ATOM     11  C   UNK     0      16.501  -3.396   7.046 -0.48 +0.01    -0.024 A 
DOCKED: ATOM     12  C   UNK     0      17.193  -4.445   7.646 -0.39 -0.01    +0.049 A 
DOCKED: ATOM     13  C   UNK     0      18.119  -4.178   8.657 -0.46 -0.03    +0.099 A 
DOCKED: ATOM     14  C   UNK     0      18.348  -2.863   9.063 -0.51 -0.04    +0.098 A 
DOCKED: ATOM     15  C   UNK     0      17.652  -1.816   8.460 -0.42 -0.01    +0.040 A 
DOCKED: ATOM     16  C   UNK     0      16.727  -2.082   7.450 -0.46 -0.00    +0.013 A 
DOCKED: BRANCH  13  17
DOCKED: ATOM     17  O   UNK     0      18.792  -5.209   9.237 -0.34 +0.20    -0.358 OA
DOCKED: ATOM     18  H   UNK     0      19.156  -4.911  10.090 -0.41 -0.21    +0.217 HD
DOCKED: ENDBRANCH  13  17
DOCKED: BRANCH  14  19
DOCKED: ATOM     19  O   UNK     0      19.249  -2.591  10.047 -0.38 +0.22    -0.358 OA
DOCKED: ATOM     20  H   UNK     0      19.562  -3.429  10.429 -0.33 -0.22    +0.217 HD
DOCKED: ENDBRANCH  14  19
DOCKED: ENDBRANCH   3  11
DOCKED: BRANCH   2  21
DOCKED: ATOM     21  O   UNK     0      16.751  -2.460   4.280 -0.54 +0.02    -0.392 OA
DOCKED: ATOM     22  H   UNK     0      17.345  -3.088   4.725 -0.47 -0.11    +0.210 HD
DOCKED: ENDBRANCH   2  21
DOCKED: BRANCH   7  23
DOCKED: ATOM     23  O   UNK     0      12.010  -3.095   2.341 -0.34 +0.11    -0.360 OA
DOCKED: ATOM     24  H   UNK     0      12.810  -2.570   2.168 -0.01 -0.10    +0.217 HD
DOCKED: ENDBRANCH   7  23
DOCKED: BRANCH  10  25
DOCKED: ATOM     25  O   UNK     0       9.609  -4.813   6.072 -0.38 +0.07    -0.361 OA
DOCKED: ATOM     26  H   UNK     0       9.800  -5.583   6.636 +0.15 -0.04    +0.217 HD
DOCKED: ENDBRANCH  10  25
DOCKED: TORSDOF 6
DOCKED: TER
DOCKED: ENDMDL
________________________________________________________________________________


	BEGINNING GENETIC ALGORITHM DOCKING 7 of 10
Run: 7 Seed: 545928761 582015338 [ Run 7 of 10 GA/GALS ]
Beginning LAMARCKIAN GENETIC ALGORITHM (LGA), with a maximum of 2500000 energy evaluations.

Final-Value: -11.382


	FINAL GENETIC ALGORITHM DOCKED STATE
	_______________________________________________


Detailed state:  trans 14.860 -3.242 6.317 quatxyzw 0.276326 -0.582019 -0.758083 0.101037 center -0.024 -0.005 0.105 ntor 6 180.0000 174.6308 179.6101 179.6757 -27.7556 144.4369
State:	 14.860  -3.242   6.317   0.278 -0.585 -0.762 168.402    180.00  174.63  179.61  179.68  -27.76  144.44

DOCKED: MODEL        7
DOCKED: USER    Run = 7
DOCKED: USER    DPF = C:/Users/Admin/.mgltools/1.5.7/ws/dock.dpf
DOCKED: USER  
DOCKED: USER    Estimated Free Energy of Binding    =   -9.13 kcal/mol  [=(1)+(2)+(3)-(4)]
DOCKED: USER    Estimated Inhibition Constant, Ki   =  204.26 nM (nanomolar)  [Temperature = 298.15 K]
DOCKED: USER    
DOCKED: USER    (1) Final Intermolecular Energy     =  -10.03 kcal/mol
DOCKED: USER        vdW + Hbond + desolv Energy     =   -9.80 kcal/mol
DOCKED: USER        Electrostatic Energy            =   -0.23 kcal/mol
DOCKED: USER    (2) Final Total Internal Energy     =   -1.36 kcal/mol
DOCKED: USER    (3) Torsional Free Energy           =   +1.79 kcal/mol
DOCKED: USER    (4) Unbound System's Energy         =   -0.47 kcal/mol
DOCKED: USER    
DOCKED: USER    
DOCKED: USER    NEWDPF move CAT.pdbqt
DOCKED: USER    NEWDPF about -0.024000 -0.005000 0.105000
DOCKED: USER    NEWDPF tran0 14.859642 -3.241620 6.317218
DOCKED: USER    NEWDPF quaternion0 0.276326 -0.582019 -0.758083 0.101037
DOCKED: USER    NEWDPF axisangle0 0.277747 -0.585013 -0.761982 168.402198
DOCKED: USER    NEWDPF quat0 0.277747 -0.585013 -0.761982 168.402198
DOCKED: USER    NEWDPF dihe0 180.00 174.63 179.61 179.68 -27.76 144.44 
DOCKED: USER  keepresnum = 1 
DOCKED: USER  
DOCKED: REMARK  6 active torsions:
DOCKED: REMARK  status: ('A' for Active; 'I' for Inactive)
DOCKED: REMARK    1  A    between atoms: O_2  and  C_7 
DOCKED: REMARK    2  A    between atoms: O_3  and  C_13 
DOCKED: REMARK    3  A    between atoms: O_4  and  C_18 
DOCKED: REMARK    4  A    between atoms: O_5  and  C_19 
DOCKED: REMARK    5  A    between atoms: O_6  and  C_21 
DOCKED: REMARK    6  A    between atoms: C_8  and  C_12 
DOCKED: USER                              x       y       z     vdW  Elec       q    Type
DOCKED: USER                           _______ _______ _______ _____ _____    ______ ____
DOCKED: ROOT
DOCKED: ATOM      1  O   UNK     0      14.316  -3.956   6.578 -0.26 +0.12    -0.338 OA
DOCKED: ATOM      2  C   UNK     0      15.485  -2.528   4.941 -0.41 -0.04    +0.156 C 
DOCKED: ATOM      3  C   UNK     0      15.576  -3.691   5.940 -0.39 -0.05    +0.191 C 
DOCKED: ATOM      4  C   UNK     0      14.467  -2.873   3.858 -0.45 -0.02    +0.079 C 
DOCKED: ATOM      5  C   UNK     0      13.225  -3.465   4.452 -0.42 -0.00    +0.011 A 
DOCKED: ATOM      6  C   UNK     0      13.223  -3.976   5.755 -0.36 -0.03    +0.081 A 
DOCKED: ATOM      7  C   UNK     0      12.052  -3.537   3.688 -0.42 -0.02    +0.077 A 
DOCKED: ATOM      8  C   UNK     0      12.054  -4.515   6.298 -0.47 -0.02    +0.074 A 
DOCKED: ATOM      9  C   UNK     0      10.889  -4.087   4.229 -0.46 -0.02    +0.073 A 
DOCKED: ATOM     10  C   UNK     0      10.888  -4.571   5.534 -0.50 -0.02    +0.071 A 
DOCKED: ENDROOT
DOCKED: BRANCH   3  11
DOCKED: ATOM     11  C   UNK     0      16.582  -3.412   7.042 -0.48 +0.01    -0.024 A 
DOCKED: ATOM     12  C   UNK     0      17.165  -4.472   7.733 -0.36 -0.01    +0.049 A 
DOCKED: ATOM     13  C   UNK     0      18.089  -4.215   8.746 -0.44 -0.03    +0.099 A 
DOCKED: ATOM     14  C   UNK     0      18.427  -2.900   9.065 -0.51 -0.04    +0.098 A 
DOCKED: ATOM     15  C   UNK     0      17.841  -1.842   8.372 -0.47 -0.01    +0.040 A 
DOCKED: ATOM     16  C   UNK     0      16.917  -2.098   7.359 -0.48 -0.00    +0.013 A 
DOCKED: BRANCH  13  17
DOCKED: ATOM     17  O   UNK     0      18.655  -5.257   9.415 -0.28 +0.21    -0.358 OA
DOCKED: ATOM     18  H   UNK     0      19.273  -4.909  10.083 -0.40 -0.21    +0.217 HD
DOCKED: ENDBRANCH  13  17
DOCKED: BRANCH  14  19
DOCKED: ATOM     19  O   UNK     0      19.329  -2.638  10.052 -0.37 +0.23    -0.358 OA
DOCKED: ATOM     20  H   UNK     0      19.574  -3.474  10.486 -0.34 -0.23    +0.217 HD
DOCKED: ENDBRANCH  14  19
DOCKED: ENDBRANCH   3  11
DOCKED: BRANCH   2  21
DOCKED: ATOM     21  O   UNK     0      16.752  -2.318   4.328 -0.49 +0.03    -0.392 OA
DOCKED: ATOM     22  H   UNK     0      17.375  -2.955   4.716 -0.47 -0.10    +0.210 HD
DOCKED: ENDBRANCH   2  21
DOCKED: BRANCH   7  23
DOCKED: ATOM     23  O   UNK     0      12.021  -3.073   2.406 -0.34 +0.11    -0.360 OA
DOCKED: ATOM     24  H   UNK     0      12.896  -2.718   2.174 -0.01 -0.09    +0.217 HD
DOCKED: ENDBRANCH   7  23
DOCKED: BRANCH  10  25
DOCKED: ATOM     25  O   UNK     0       9.753  -5.104   6.063 -0.36 +0.07    -0.361 OA
DOCKED: ATOM     26  H   UNK     0       9.998  -5.759   6.739 +0.16 -0.04    +0.217 HD
DOCKED: ENDBRANCH  10  25
DOCKED: TORSDOF 6
DOCKED: TER
DOCKED: ENDMDL
________________________________________________________________________________


	BEGINNING GENETIC ALGORITHM DOCKING 8 of 10
Run: 8 Seed: 512130068 514810342 [ Run 8 of 10 GA/GALS ]
Beginning LAMARCKIAN GENETIC ALGORITHM (LGA), with a maximum of 2500000 energy evaluations.

Final-Value: -10.754


	FINAL GENETIC ALGORITHM DOCKED STATE
	_______________________________________________


Detailed state:  trans 15.244 -3.688 6.205 quatxyzw -0.216141 0.401479 0.874919 -0.163137 center -0.024 -0.005 0.105 ntor 6 173.8280 -180.0000 -168.7695 -148.8216 17.5899 -11.7117
State:	 15.244  -3.688   6.205  -0.219  0.407  0.887 -161.222    173.83 -180.00 -168.77 -148.82   17.59  -11.71

DOCKED: MODEL        8
DOCKED: USER    Run = 8
DOCKED: USER    DPF = C:/Users/Admin/.mgltools/1.5.7/ws/dock.dpf
DOCKED: USER  
DOCKED: USER    Estimated Free Energy of Binding    =   -8.50 kcal/mol  [=(1)+(2)+(3)-(4)]
DOCKED: USER    Estimated Inhibition Constant, Ki   =  590.17 nM (nanomolar)  [Temperature = 298.15 K]
DOCKED: USER    
DOCKED: USER    (1) Final Intermolecular Energy     =   -9.35 kcal/mol
DOCKED: USER        vdW + Hbond + desolv Energy     =   -9.13 kcal/mol
DOCKED: USER        Electrostatic Energy            =   -0.22 kcal/mol
DOCKED: USER    (2) Final Total Internal Energy     =   -1.41 kcal/mol
DOCKED: USER    (3) Torsional Free Energy           =   +1.79 kcal/mol
DOCKED: USER    (4) Unbound System's Energy         =   -0.47 kcal/mol
DOCKED: USER    
DOCKED: USER    
DOCKED: USER    NEWDPF move CAT.pdbqt
DOCKED: USER    NEWDPF about -0.024000 -0.005000 0.105000
DOCKED: USER    NEWDPF tran0 15.243583 -3.688038 6.204509
DOCKED: USER    NEWDPF quaternion0 -0.216141 0.401479 0.874919 -0.163137
DOCKED: USER    NEWDPF axisangle0 -0.219076 0.406930 0.886800 -161.221935
DOCKED: USER    NEWDPF quat0 -0.219076 0.406930 0.886800 -161.221935
DOCKED: USER    NEWDPF dihe0 173.83 -180.00 -168.77 -148.82 17.59 -11.71 
DOCKED: USER  keepresnum = 1 
DOCKED: USER  
DOCKED: REMARK  6 active torsions:
DOCKED: REMARK  status: ('A' for Active; 'I' for Inactive)
DOCKED: REMARK    1  A    between atoms: O_2  and  C_7 
DOCKED: REMARK    2  A    between atoms: O_3  and  C_13 
DOCKED: REMARK    3  A    between atoms: O_4  and  C_18 
DOCKED: REMARK    4  A    between atoms: O_5  and  C_19 
DOCKED: REMARK    5  A    between atoms: O_6  and  C_21 
DOCKED: REMARK    6  A    between atoms: C_8  and  C_12 
DOCKED: USER                              x       y       z     vdW  Elec       q    Type
DOCKED: USER                           _______ _______ _______ _____ _____    ______ ____
DOCKED: ROOT
DOCKED: ATOM      1  O   UNK     0      14.674  -4.428   6.152 -0.26 +0.09    -0.338 OA
DOCKED: ATOM      2  C   UNK     0      15.854  -2.456   5.255 -0.41 -0.04    +0.156 C 
DOCKED: ATOM      3  C   UNK     0      15.922  -3.943   5.629 -0.39 -0.05    +0.191 C 
DOCKED: ATOM      4  C   UNK     0      14.781  -2.253   4.188 -0.46 -0.02    +0.079 C 
DOCKED: ATOM      5  C   UNK     0      13.533  -3.011   4.527 -0.42 -0.00    +0.011 A 
DOCKED: ATOM      6  C   UNK     0      13.552  -4.047   5.466 -0.38 -0.02    +0.081 A 
DOCKED: ATOM      7  C   UNK     0      12.331  -2.702   3.875 -0.41 -0.02    +0.077 A 
DOCKED: ATOM      8  C   UNK     0      12.378  -4.738   5.777 -0.45 -0.02    +0.074 A 
DOCKED: ATOM      9  C   UNK     0      11.162  -3.400   4.180 -0.44 -0.02    +0.073 A 
DOCKED: ATOM     10  C   UNK     0      11.184  -4.415   5.133 -0.47 -0.02    +0.071 A 
DOCKED: ENDROOT
DOCKED: BRANCH   3  11
DOCKED: ATOM     11  C   UNK     0      16.980  -4.213   6.683 -0.44 +0.01    -0.024 A 
DOCKED: ATOM     12  C   UNK     0      17.051  -3.409   7.817 -0.44 -0.01    +0.049 A 
DOCKED: ATOM     13  C   UNK     0      18.025  -3.657   8.785 -0.46 -0.03    +0.099 A 
DOCKED: ATOM     14  C   UNK     0      18.924  -4.710   8.616 -0.48 -0.05    +0.098 A 
DOCKED: ATOM     15  C   UNK     0      18.851  -5.513   7.478 -0.45 -0.01    +0.040 A 
DOCKED: ATOM     16  C   UNK     0      17.877  -5.265   6.511 -0.27 -0.00    +0.013 A 
DOCKED: BRANCH  13  17
DOCKED: ATOM     17  O   UNK     0      18.086  -2.866   9.892 -0.36 +0.15    -0.358 OA
DOCKED: ATOM     18  H   UNK     0      18.747  -3.230  10.507 -0.32 -0.18    +0.217 HD
DOCKED: ENDBRANCH  13  17
DOCKED: BRANCH  14  19
DOCKED: ATOM     19  O   UNK     0      19.878  -4.962   9.555 -0.24 +0.30    -0.358 OA
DOCKED: ATOM     20  H   UNK     0      19.790  -4.315  10.276 -0.38 -0.25    +0.217 HD
DOCKED: ENDBRANCH  14  19
DOCKED: ENDBRANCH   3  11
DOCKED: BRANCH   2  21
DOCKED: ATOM     21  O   UNK     0      17.106  -2.031   4.730 -0.20 +0.09    -0.392 OA
DOCKED: ATOM     22  H   UNK     0      17.648  -2.825   4.586 -0.39 -0.13    +0.210 HD
DOCKED: ENDBRANCH   2  21
DOCKED: BRANCH   7  23
DOCKED: ATOM     23  O   UNK     0      12.277  -1.715   2.936 -0.22 +0.13    -0.360 OA
DOCKED: ATOM     24  H   UNK     0      13.133  -1.663   2.477 -0.25 -0.13    +0.217 HD
DOCKED: ENDBRANCH   7  23
DOCKED: BRANCH  10  25
DOCKED: ATOM     25  O   UNK     0      10.044  -5.094   5.433 -0.31 +0.08    -0.361 OA
DOCKED: ATOM     26  H   UNK     0      10.164  -5.552   6.282 +0.16 -0.04    +0.217 HD
DOCKED: ENDBRANCH  10  25
DOCKED: TORSDOF 6
DOCKED: TER
DOCKED: ENDMDL
________________________________________________________________________________


	BEGINNING GENETIC ALGORITHM DOCKING 9 of 10
Run: 9 Seed: 751770219 232143855 [ Run 9 of 10 GA/GALS ]
Beginning LAMARCKIAN GENETIC ALGORITHM (LGA), with a maximum of 2500000 energy evaluations.

Final-Value: -11.417


	FINAL GENETIC ALGORITHM DOCKED STATE
	_______________________________________________


Detailed state:  trans 14.880 -3.367 6.376 quatxyzw 0.265175 -0.585833 -0.759199 0.100489 center -0.024 -0.005 0.105 ntor 6 -176.0098 170.1838 179.8808 167.1583 -22.1847 144.8806
State:	 14.880  -3.367   6.376   0.267 -0.589 -0.763 168.465   -176.01  170.18  179.88  167.16  -22.18  144.88

DOCKED: MODEL        9
DOCKED: USER    Run = 9
DOCKED: USER    DPF = C:/Users/Admin/.mgltools/1.5.7/ws/dock.dpf
DOCKED: USER  
DOCKED: USER    Estimated Free Energy of Binding    =   -9.16 kcal/mol  [=(1)+(2)+(3)-(4)]
DOCKED: USER    Estimated Inhibition Constant, Ki   =  192.78 nM (nanomolar)  [Temperature = 298.15 K]
DOCKED: USER    
DOCKED: USER    (1) Final Intermolecular Energy     =  -10.06 kcal/mol
DOCKED: USER        vdW + Hbond + desolv Energy     =   -9.83 kcal/mol
DOCKED: USER        Electrostatic Energy            =   -0.23 kcal/mol
DOCKED: USER    (2) Final Total Internal Energy     =   -1.36 kcal/mol
DOCKED: USER    (3) Torsional Free Energy           =   +1.79 kcal/mol
DOCKED: USER    (4) Unbound System's Energy         =   -0.47 kcal/mol
DOCKED: USER    
DOCKED: USER    
DOCKED: USER    NEWDPF move CAT.pdbqt
DOCKED: USER    NEWDPF about -0.024000 -0.005000 0.105000
DOCKED: USER    NEWDPF tran0 14.880438 -3.367458 6.375898
DOCKED: USER    NEWDPF quaternion0 0.265175 -0.585833 -0.759199 0.100489
DOCKED: USER    NEWDPF axisangle0 0.266524 -0.588814 -0.763062 168.465324
DOCKED: USER    NEWDPF quat0 0.266524 -0.588814 -0.763062 168.465324
DOCKED: USER    NEWDPF dihe0 -176.01 170.18 179.88 167.16 -22.18 144.88 
DOCKED: USER  keepresnum = 1 
DOCKED: USER  
DOCKED: REMARK  6 active torsions:
DOCKED: REMARK  status: ('A' for Active; 'I' for Inactive)
DOCKED: REMARK    1  A    between atoms: O_2  and  C_7 
DOCKED: REMARK    2  A    between atoms: O_3  and  C_13 
DOCKED: REMARK    3  A    between atoms: O_4  and  C_18 
DOCKED: REMARK    4  A    between atoms: O_5  and  C_19 
DOCKED: REMARK    5  A    between atoms: O_6  and  C_21 
DOCKED: REMARK    6  A    between atoms: C_8  and  C_12 
DOCKED: USER                              x       y       z     vdW  Elec       q    Type
DOCKED: USER                           _______ _______ _______ _____ _____    ______ ____
DOCKED: ROOT
DOCKED: ATOM      1  O   UNK     0      14.332  -4.073   6.649 -0.28 +0.11    -0.338 OA
DOCKED: ATOM      2  C   UNK     0      15.490  -2.666   4.986 -0.41 -0.04    +0.156 C 
DOCKED: ATOM      3  C   UNK     0      15.583  -3.827   5.987 -0.39 -0.05    +0.191 C 
DOCKED: ATOM      4  C   UNK     0      14.447  -3.000   3.923 -0.45 -0.02    +0.079 C 
DOCKED: ATOM      5  C   UNK     0      13.208  -3.573   4.543 -0.42 -0.00    +0.011 A 
DOCKED: ATOM      6  C   UNK     0      13.223  -4.080   5.846 -0.37 -0.03    +0.081 A 
DOCKED: ATOM      7  C   UNK     0      12.020  -3.630   3.801 -0.42 -0.02    +0.077 A 
DOCKED: ATOM      8  C   UNK     0      12.057  -4.602   6.413 -0.47 -0.02    +0.074 A 
DOCKED: ATOM      9  C   UNK     0      10.860  -4.162   4.365 -0.47 -0.02    +0.073 A 
DOCKED: ATOM     10  C   UNK     0      10.877  -4.643   5.671 -0.50 -0.02    +0.071 A 
DOCKED: ENDROOT
DOCKED: BRANCH   3  11
DOCKED: ATOM     11  C   UNK     0      16.613  -3.561   7.068 -0.48 +0.01    -0.024 A 
DOCKED: ATOM     12  C   UNK     0      17.201  -4.627   7.744 -0.32 -0.01    +0.049 A 
DOCKED: ATOM     13  C   UNK     0      18.148  -4.381   8.740 -0.44 -0.04    +0.099 A 
DOCKED: ATOM     14  C   UNK     0      18.504  -3.069   9.055 -0.51 -0.04    +0.098 A 
DOCKED: ATOM     15  C   UNK     0      17.913  -2.004   8.376 -0.49 -0.01    +0.040 A 
DOCKED: ATOM     16  C   UNK     0      16.967  -2.250   7.382 -0.49 -0.00    +0.013 A 
DOCKED: BRANCH  13  17
DOCKED: ATOM     17  O   UNK     0      18.719  -5.429   9.395 -0.31 +0.21    -0.358 OA
DOCKED: ATOM     18  H   UNK     0      19.305  -5.088  10.093 -0.39 -0.21    +0.217 HD
DOCKED: ENDBRANCH  13  17
DOCKED: BRANCH  14  19
DOCKED: ATOM     19  O   UNK     0      19.428  -2.818  10.024 -0.35 +0.25    -0.358 OA
DOCKED: ATOM     20  H   UNK     0      19.622  -3.645  10.498 -0.36 -0.24    +0.217 HD
DOCKED: ENDBRANCH  14  19
DOCKED: ENDBRANCH   3  11
DOCKED: BRANCH   2  21
DOCKED: ATOM     21  O   UNK     0      16.747  -2.475   4.349 -0.57 +0.03    -0.392 OA
DOCKED: ATOM     22  H   UNK     0      17.367  -3.123   4.723 -0.47 -0.11    +0.210 HD
DOCKED: ENDBRANCH   2  21
DOCKED: BRANCH   7  23
DOCKED: ATOM     23  O   UNK     0      11.971  -3.169   2.519 -0.33 +0.10    -0.360 OA
DOCKED: ATOM     24  H   UNK     0      12.774  -2.651   2.335 +0.04 -0.09    +0.217 HD
DOCKED: ENDBRANCH   7  23
DOCKED: BRANCH  10  25
DOCKED: ATOM     25  O   UNK     0       9.744  -5.159   6.223 -0.34 +0.07    -0.361 OA
DOCKED: ATOM     26  H   UNK     0       9.991  -5.749   6.956 +0.15 -0.04    +0.217 HD
DOCKED: ENDBRANCH  10  25
DOCKED: TORSDOF 6
DOCKED: TER
DOCKED: ENDMDL
________________________________________________________________________________


	BEGINNING GENETIC ALGORITHM DOCKING 10 of 10
Run: 10 Seed: 2051487866 1547438009 [ Run 10 of 10 GA/GALS ]
Beginning LAMARCKIAN GENETIC ALGORITHM (LGA), with a maximum of 2500000 energy evaluations.

Final-Value: -10.108


	FINAL GENETIC ALGORITHM DOCKED STATE
	_______________________________________________


Detailed state:  trans 14.774 -3.331 5.404 quatxyzw -0.931804 -0.021984 -0.277194 0.233285 center -0.024 -0.005 0.105 ntor 6 174.3676 -180.0000 61.9405 -99.1669 -119.4433 -54.1764
State:	 14.774  -3.331   5.404  -0.958 -0.023 -0.285 153.019    174.37 -180.00   61.94  -99.17 -119.44  -54.18

DOCKED: MODEL       10
DOCKED: USER    Run = 10
DOCKED: USER    DPF = C:/Users/Admin/.mgltools/1.5.7/ws/dock.dpf
DOCKED: USER  
DOCKED: USER    Estimated Free Energy of Binding    =   -7.85 kcal/mol  [=(1)+(2)+(3)-(4)]
DOCKED: USER    Estimated Inhibition Constant, Ki   =    1.75 uM (micromolar)  [Temperature = 298.15 K]
DOCKED: USER    
DOCKED: USER    (1) Final Intermolecular Energy     =   -8.75 kcal/mol
DOCKED: USER        vdW + Hbond + desolv Energy     =   -8.70 kcal/mol
DOCKED: USER        Electrostatic Energy            =   -0.05 kcal/mol
DOCKED: USER    (2) Final Total Internal Energy     =   -1.36 kcal/mol
DOCKED: USER    (3) Torsional Free Energy           =   +1.79 kcal/mol
DOCKED: USER    (4) Unbound System's Energy         =   -0.47 kcal/mol
DOCKED: USER    
DOCKED: USER    
DOCKED: USER    NEWDPF move CAT.pdbqt
DOCKED: USER    NEWDPF about -0.024000 -0.005000 0.105000
DOCKED: USER    NEWDPF tran0 14.773760 -3.331357 5.404117
DOCKED: USER    NEWDPF quaternion0 -0.931804 -0.021984 -0.277194 0.233285
DOCKED: USER    NEWDPF axisangle0 -0.958243 -0.022607 -0.285060 153.018848
DOCKED: USER    NEWDPF quat0 -0.958243 -0.022607 -0.285060 153.018848
DOCKED: USER    NEWDPF dihe0 174.37 -180.00 61.94 -99.17 -119.44 -54.18 
DOCKED: USER  keepresnum = 1 
DOCKED: USER  
DOCKED: REMARK  6 active torsions:
DOCKED: REMARK  status: ('A' for Active; 'I' for Inactive)
DOCKED: REMARK    1  A    between atoms: O_2  and  C_7 
DOCKED: REMARK    2  A    between atoms: O_3  and  C_13 
DOCKED: REMARK    3  A    between atoms: O_4  and  C_18 
DOCKED: REMARK    4  A    between atoms: O_5  and  C_19 
DOCKED: REMARK    5  A    between atoms: O_6  and  C_21 
DOCKED: REMARK    6  A    between atoms: C_8  and  C_12 
DOCKED: USER                              x       y       z     vdW  Elec       q    Type
DOCKED: USER                           _______ _______ _______ _____ _____    ______ ____
DOCKED: ROOT
DOCKED: ATOM      1  O   UNK     0      14.833  -3.677   6.271 -0.26 +0.11    -0.338 OA
DOCKED: ATOM      2  C   UNK     0      15.135  -1.950   4.536 -0.40 -0.04    +0.156 C 
DOCKED: ATOM      3  C   UNK     0      14.185  -2.629   5.531 -0.28 -0.07    +0.191 C 
DOCKED: ATOM      4  C   UNK     0      16.308  -1.338   5.296 -0.31 -0.02    +0.079 C 
DOCKED: ATOM      5  C   UNK     0      16.838  -2.289   6.327 -0.45 -0.00    +0.011 A 
DOCKED: ATOM      6  C   UNK     0      16.077  -3.381   6.758 -0.43 -0.02    +0.081 A 
DOCKED: ATOM      7  C   UNK     0      18.102  -2.070   6.893 -0.46 -0.02    +0.077 A 
DOCKED: ATOM      8  C   UNK     0      16.589  -4.263   7.713 -0.34 -0.01    +0.074 A 
DOCKED: ATOM      9  C   UNK     0      18.606  -2.946   7.855 -0.49 -0.03    +0.073 A 
DOCKED: ATOM     10  C   UNK     0      17.852  -4.045   8.262 -0.50 -0.02    +0.071 A 
DOCKED: ENDROOT
DOCKED: BRANCH   3  11
DOCKED: ATOM     11  C   UNK     0      12.987  -3.252   4.836 -0.41 +0.01    -0.024 A 
DOCKED: ATOM     12  C   UNK     0      12.914  -3.249   3.446 -0.43 -0.01    +0.049 A 
DOCKED: ATOM     13  C   UNK     0      11.813  -3.821   2.807 -0.44 -0.03    +0.099 A 
DOCKED: ATOM     14  C   UNK     0      10.789  -4.393   3.561 -0.44 -0.02    +0.098 A 
DOCKED: ATOM     15  C   UNK     0      10.865  -4.393   4.954 -0.52 -0.01    +0.040 A 
DOCKED: ATOM     16  C   UNK     0      11.966  -3.822   5.592 -0.49 -0.00    +0.013 A 
DOCKED: BRANCH  13  17
DOCKED: ATOM     17  O   UNK     0      11.751  -3.815   1.447 -0.45 +0.09    -0.358 OA
DOCKED: ATOM     18  H   UNK     0      10.973  -4.328   1.162 +0.16 -0.04    +0.217 HD
DOCKED: ENDBRANCH  13  17
DOCKED: BRANCH  14  19
DOCKED: ATOM     19  O   UNK     0       9.710  -4.955   2.948 -0.32 +0.07    -0.358 OA
DOCKED: ATOM     20  H   UNK     0       9.815  -4.871   1.985 +0.19 -0.04    +0.217 HD
DOCKED: ENDBRANCH  14  19
DOCKED: ENDBRANCH   3  11
DOCKED: BRANCH   2  21
DOCKED: ATOM     21  O   UNK     0      14.449  -0.913   3.842 -0.20 +0.17    -0.392 OA
DOCKED: ATOM     22  H   UNK     0      14.463  -1.135   2.896 -0.37 -0.13    +0.210 HD
DOCKED: ENDBRANCH   2  21
DOCKED: BRANCH   7  23
DOCKED: ATOM     23  O   UNK     0      18.863  -1.003   6.518 -0.32 +0.10    -0.360 OA
DOCKED: ATOM     24  H   UNK     0      18.557  -0.210   6.991 +0.02 -0.07    +0.217 HD
DOCKED: ENDBRANCH   7  23
DOCKED: BRANCH  10  25
DOCKED: ATOM     25  O   UNK     0      18.346  -4.901   9.197 -0.33 +0.16    -0.361 OA
DOCKED: ATOM     26  H   UNK     0      18.508  -4.409  10.020 -0.42 -0.17    +0.217 HD
DOCKED: ENDBRANCH  10  25
DOCKED: TORSDOF 6
DOCKED: TER
DOCKED: ENDMDL
________________________________________________________________________________

DPF> analysis                             # perform a ranked cluster analysis


		CLUSTER ANALYSIS OF CONFORMATIONS
		_________________________________

Number of conformations = 10

RMSD cluster analysis will be performed using the ligand atoms only (26 / 26 total atoms).

Outputting structurally similar clusters, ranked in order of increasing energy.


________________________________________________________________________________

Number of distinct conformational clusters found = 2,  out of 10 runs,
Using an rmsd-tolerance of 2.0 A


	CLUSTERING HISTOGRAM
	____________________

________________________________________________________________________________
     |           |     |           |     |                                    
Clus | Lowest    | Run | Mean      | Num | Histogram                          
-ter | Binding   |     | Binding   | in  |                                    
Rank | Energy    |     | Energy    | Clus|    5    10   15   20   25   30   35
_____|___________|_____|___________|_____|____:____|____:____|____:____|____:___
   1 |     -9.20 |   5 |     -8.96 |   9 |#########
   2 |     -7.59 |   1 |     -7.59 |   1 |#
_____|___________|_____|___________|_____|______________________________________


Number of multi-member conformational clusters found = 1, out of 10 runs.

	RMSD TABLE
	__________

_____________________________________________________________________
     |      |      |           |         |                 |
Rank | Sub- | Run  | Binding   | Cluster | Reference       | Grep
     | Rank |      | Energy    | RMSD    | RMSD            | Pattern
_____|______|______|___________|_________|_________________|___________
   1      1      5       -9.20      0.00     13.36           RANKING
   1      2      3       -9.20      0.10     13.40           RANKING
   1      3      6       -9.20      0.12     13.32           RANKING
   1      4      2       -9.19      0.14     13.37           RANKING
   1      5      4       -9.18      0.11     13.38           RANKING
   1      6      9       -9.16      0.21     13.46           RANKING
   1      7      7       -9.13      0.10     13.40           RANKING
   1      8      8       -8.50      0.94     13.60           RANKING
   1      9     10       -7.85      1.82     12.55           RANKING
   2      1      1       -7.59      0.00     11.35           RANKING
_______________________________________________________________________



	INFORMATION ENTROPY ANALYSIS FOR THIS CLUSTERING
	________________________________________________


Information entropy for this clustering = 0.14  (rmstol = 2.00 Angstrom)

_______________________________________________________________________


	STATISTICAL MECHANICAL ANALYSIS
	_______________________________


Partition function, Q =    10.15            at Temperature, T = 298.15 K
Free energy,        A ~ -1373.06 kcal/mol   at Temperature, T = 298.15 K
Internal energy,    U =    -8.82 kcal/mol   at Temperature, T = 298.15 K
Entropy,            S =     4.58 kcal/mol/K at Temperature, T = 298.15 K

_______________________________________________________________________


	LOWEST ENERGY DOCKED CONFORMATION from EACH CLUSTER
	___________________________________________________



Keeping original residue number (specified in the input PDBQ file) for outputting.

MODEL        5
USER    Run = 5
USER    Cluster Rank = 1
USER    Number of conformations in this cluster = 9
USER  
USER    RMSD from reference structure       = 13.358 A
USER  
USER    Estimated Free Energy of Binding    =   -9.20 kcal/mol  [=(1)+(2)+(3)-(4)]
USER    Estimated Inhibition Constant, Ki   =  180.06 nM (nanomolar)  [Temperature = 298.15 K]
USER    
USER    (1) Final Intermolecular Energy     =  -10.09 kcal/mol
USER        vdW + Hbond + desolv Energy     =   -9.86 kcal/mol
USER        Electrostatic Energy            =   -0.23 kcal/mol
USER    (2) Final Total Internal Energy     =   -1.36 kcal/mol
USER    (3) Torsional Free Energy           =   +1.79 kcal/mol
USER    (4) Unbound System's Energy         =   -0.47 kcal/mol
USER    
USER    
USER  
USER    DPF = C:/Users/Admin/.mgltools/1.5.7/ws/dock.dpf
USER    NEWDPF move	CAT.pdbqt
USER    NEWDPF about	-0.024000 -0.005000 0.105000
USER    NEWDPF tran0	14.825110 -3.240611 6.278644
USER    NEWDPF axisangle0	-0.282066 0.597419 0.750686 -168.008256
USER    NEWDPF quaternion0	-0.280523 0.594151 0.746579 -0.104457
USER    NEWDPF dihe0	-170.83 172.66 174.63 165.82 -19.47 151.00 
USER  
USER                              x       y       z    vdW   Elec        q     RMS 
ATOM      1  O   UNK     0      14.271  -3.942   6.554 -0.26 +0.12    -0.338    13.358
ATOM      2  C   UNK     0      15.477  -2.576   4.890 -0.41 -0.04    +0.156    13.358
ATOM      3  C   UNK     0      15.542  -3.707   5.926 -0.39 -0.05    +0.191    13.358
ATOM      4  C   UNK     0      14.471  -2.945   3.804 -0.43 -0.02    +0.079    13.358
ATOM      5  C   UNK     0      13.215  -3.507   4.398 -0.42 -0.00    +0.011    13.358
ATOM      6  C   UNK     0      13.189  -3.977   5.715 -0.37 -0.03    +0.081    13.358
ATOM      7  C   UNK     0      12.052  -3.592   3.619 -0.42 -0.02    +0.077    13.358
ATOM      8  C   UNK     0      12.008  -4.489   6.258 -0.47 -0.02    +0.074    13.358
ATOM      9  C   UNK     0      10.877  -4.113   4.160 -0.46 -0.02    +0.073    13.358
ATOM     10  C   UNK     0      10.853  -4.558   5.479 -0.50 -0.02    +0.071    13.358
ATOM     11  C   UNK     0      16.535  -3.405   7.033 -0.48 +0.01    -0.024    13.358
ATOM     12  C   UNK     0      17.201  -4.447   7.672 -0.39 -0.01    +0.049    13.358
ATOM     13  C   UNK     0      18.113  -4.168   8.691 -0.45 -0.03    +0.099    13.358
ATOM     14  C   UNK     0      18.357  -2.847   9.066 -0.51 -0.04    +0.098    13.358
ATOM     15  C   UNK     0      17.688  -1.805   8.425 -0.43 -0.01    +0.040    13.358
ATOM     16  C   UNK     0      16.776  -2.084   7.407 -0.47 -0.00    +0.013    13.358
ATOM     17  O   UNK     0      18.761  -5.194   9.309 -0.32 +0.21    -0.358    13.358
ATOM     18  H   UNK     0      19.244  -4.847  10.080 -0.40 -0.22    +0.217    13.358
ATOM     19  O   UNK     0      19.246  -2.563  10.058 -0.38 +0.22    -0.358    13.358
ATOM     20  H   UNK     0      19.532  -3.395  10.474 -0.33 -0.22    +0.217    13.358
ATOM     21  O   UNK     0      16.754  -2.396   4.289 -0.51 +0.03    -0.392    13.358
ATOM     22  H   UNK     0      17.382  -2.969   4.759 -0.47 -0.11    +0.210    13.358
ATOM     23  O   UNK     0      12.044  -3.167   2.324 -0.35 +0.11    -0.360    13.358
ATOM     24  H   UNK     0      12.840  -2.633   2.157 -0.01 -0.10    +0.217    13.358
ATOM     25  O   UNK     0       9.705  -5.064   6.008 -0.36 +0.07    -0.361    13.358
ATOM     26  H   UNK     0       9.927  -5.596   6.791 +0.15 -0.04    +0.217    13.358
TER
ENDMDL
MODEL        1
USER    Run = 1
USER    Cluster Rank = 2
USER    Number of conformations in this cluster = 1
USER  
USER    RMSD from reference structure       = 11.354 A
USER  
USER    Estimated Free Energy of Binding    =   -7.59 kcal/mol  [=(1)+(2)+(3)-(4)]
USER    Estimated Inhibition Constant, Ki   =    2.73 uM (micromolar)  [Temperature = 298.15 K]
USER    
USER    (1) Final Intermolecular Energy     =   -8.45 kcal/mol
USER        vdW + Hbond + desolv Energy     =   -8.36 kcal/mol
USER        Electrostatic Energy            =   -0.09 kcal/mol
USER    (2) Final Total Internal Energy     =   -1.39 kcal/mol
USER    (3) Torsional Free Energy           =   +1.79 kcal/mol
USER    (4) Unbound System's Energy         =   -0.47 kcal/mol
USER    
USER    
USER  
USER    DPF = C:/Users/Admin/.mgltools/1.5.7/ws/dock.dpf
USER    NEWDPF move	CAT.pdbqt
USER    NEWDPF about	-0.024000 -0.005000 0.105000
USER    NEWDPF tran0	13.824958 -2.549681 4.660552
USER    NEWDPF axisangle0	-0.946169 -0.236420 -0.221067 -169.638738
USER    NEWDPF quaternion0	-0.942303 -0.235454 -0.220164 -0.090296
USER    NEWDPF dihe0	170.93 -179.69 0.65 123.64 54.89 -7.55 
USER  
USER                              x       y       z    vdW   Elec        q     RMS 
ATOM      1  O   UNK     0      14.327  -3.105   5.221 -0.20 +0.11    -0.338    11.354
ATOM      2  C   UNK     0      13.199  -1.001   4.597 -0.35 -0.05    +0.156    11.354
ATOM      3  C   UNK     0      13.066  -2.418   5.173 -0.33 -0.07    +0.191    11.354
ATOM      4  C   UNK     0      14.149  -0.189   5.474 -0.38 -0.03    +0.079    11.354
ATOM      5  C   UNK     0      15.368  -0.984   5.830 -0.39 -0.00    +0.011    11.354
ATOM      6  C   UNK     0      15.384  -2.377   5.697 -0.38 -0.03    +0.081    11.354
ATOM      7  C   UNK     0      16.503  -0.333   6.332 -0.35 -0.03    +0.077    11.354
ATOM      8  C   UNK     0      16.532  -3.103   6.025 -0.40 -0.02    +0.074    11.354
ATOM      9  C   UNK     0      17.645  -1.061   6.669 -0.43 -0.02    +0.073    11.354
ATOM     10  C   UNK     0      17.661  -2.445   6.511 -0.40 -0.02    +0.071    11.354
ATOM     11  C   UNK     0      12.124  -3.277   4.349 -0.45 +0.01    -0.024    11.354
ATOM     12  C   UNK     0      12.304  -3.378   2.971 -0.48 -0.01    +0.049    11.354
ATOM     13  C   UNK     0      11.437  -4.168   2.214 -0.40 -0.02    +0.099    11.354
ATOM     14  C   UNK     0      10.393  -4.853   2.837 -0.43 -0.02    +0.098    11.354
ATOM     15  C   UNK     0      10.216  -4.749   4.216 -0.54 -0.01    +0.040    11.354
ATOM     16  C   UNK     0      11.082  -3.960   4.973 -0.53 -0.00    +0.013    11.354
ATOM     17  O   UNK     0      11.621  -4.262   0.868 -0.48 +0.08    -0.358    11.354
ATOM     18  H   UNK     0      11.035  -4.954   0.515 +0.21 -0.03    +0.217    11.354
ATOM     19  O   UNK     0       9.542  -5.627   2.107 -0.36 +0.07    -0.358    11.354
ATOM     20  H   UNK     0       9.808  -5.593   1.172 +0.18 -0.03    +0.217    11.354
ATOM     21  O   UNK     0      11.928  -0.362   4.586 -0.29 +0.09    -0.392    11.354
ATOM     22  H   UNK     0      12.053   0.532   4.223 +0.11 -0.05    +0.210    11.354
ATOM     23  O   UNK     0      16.518   1.020   6.500 -0.21 +0.16    -0.360    11.354
ATOM     24  H   UNK     0      16.310   1.450   5.653 -0.31 -0.16    +0.217    11.354
ATOM     25  O   UNK     0      18.776  -3.155   6.837 -0.33 +0.14    -0.361    11.354
ATOM     26  H   UNK     0      19.047  -3.685   6.068 -0.43 -0.13    +0.217    11.354
TER
ENDMDL


AVSFLD: # AVS field file
AVSFLD: #
AVSFLD: # Created by AutoDock
AVSFLD: #
AVSFLD: ndim=2           # number of dimensions in the field
AVSFLD: nspace=1         # number of physical coordinates
AVSFLD: veclen=7         # vector size
AVSFLD: dim1=26          # atoms
AVSFLD: dim2=2           # conformations
AVSFLD: data=Real       # data type (byte,integer,Real,double)
AVSFLD: field=uniform    # field coordinate layout
AVSFLD: label= x y z vdW Elec q RMS
AVSFLD: variable 1 file = C:/Users/Admin/.mgltools/1.5.7/ws/dock.dlg.pdb filetype = ascii offset = 5 stride = 12
AVSFLD: variable 2 file = C:/Users/Admin/.mgltools/1.5.7/ws/dock.dlg.pdb filetype = ascii offset = 6 stride = 12
AVSFLD: variable 3 file = C:/Users/Admin/.mgltools/1.5.7/ws/dock.dlg.pdb filetype = ascii offset = 7 stride = 12
AVSFLD: variable 4 file = C:/Users/Admin/.mgltools/1.5.7/ws/dock.dlg.pdb filetype = ascii offset = 8 stride = 12
AVSFLD: variable 5 file = C:/Users/Admin/.mgltools/1.5.7/ws/dock.dlg.pdb filetype = ascii offset = 9 stride = 12
AVSFLD: variable 6 file = C:/Users/Admin/.mgltools/1.5.7/ws/dock.dlg.pdb filetype = ascii offset = 10 stride = 12
AVSFLD: variable 7 file = C:/Users/Admin/.mgltools/1.5.7/ws/dock.dlg.pdb filetype = ascii offset = 11 stride = 12
AVSFLD: # end of file

>>> Closing the docking parameter file (DPF)...
This docking finished at:			6:26 48" p.m., 01/10/2026


________________________________________________________________________________

C:/Users/Admin/.mgltools/1.5.7/ws/autodock4.exe: Successful Completion on "DESKTOP-8TJI1NH"

Real= 4m 51.05s,  CPU= 4m 47.55s,  System= 1.09s
________________________________________________________________________________

