REMARK  5 active torsions:
REMARK  status: ('A' for Active; 'I' for Inactive)
REMARK    1  A    between atoms: O_2  and  C_13 
REMARK    2  A    between atoms: O_3  and  C_12 
REMARK    3  A    between atoms: O_5  and  C_16 
REMARK    4  A    between atoms: O_6  and  C_21 
REMARK    5  A    between atoms: C_8  and  C_11 
ROOT
HETATM    1  O   UNK     0       0.895   2.300  -0.206  0.00  0.00    -0.321 OA
HETATM    2  O   UNK     0      -0.128  -1.625   0.241  0.00  0.00    -0.286 OA
HETATM    3  C   UNK     0       1.579  -0.011   0.086  0.00  0.00     0.085 A 
HETATM    4  C   UNK     0      -0.856   0.630   0.006  0.00  0.00     0.048 A 
HETATM    5  C   UNK     0       1.869   1.343  -0.080  0.00  0.00     0.094 A 
HETATM    6  C   UNK     0       0.169  -0.443   0.126  0.00  0.00     0.200 A 
HETATM    7  C   UNK     0       2.613  -0.942   0.209  0.00  0.00     0.119 A 
HETATM    8  C   UNK     0       3.939  -0.509   0.164  0.00  0.00     0.135 A 
HETATM    9  C   UNK     0       3.196   1.773  -0.125  0.00  0.00     0.077 A 
HETATM   10  C   UNK     0      -0.414   1.888  -0.146  0.00  0.00     0.159 A 
HETATM   11  C   UNK     0       4.230   0.845  -0.002  0.00  0.00     0.104 A 
ENDROOT
BRANCH   4  12
HETATM   12  C   UNK     0      -2.298   0.340   0.069  0.00  0.00    -0.020 A 
HETATM   13  C   UNK     0      -3.009   0.067  -1.100  0.00  0.00     0.015 A 
HETATM   14  C   UNK     0      -4.375  -0.209  -1.041  0.00  0.00     0.037 A 
HETATM   15  C   UNK     0      -5.033  -0.211   0.190  0.00  0.00     0.068 A 
HETATM   16  C   UNK     0      -4.324   0.062   1.360  0.00  0.00     0.037 A 
HETATM   17  C   UNK     0      -2.958   0.337   1.300  0.00  0.00     0.015 A 
BRANCH  15  18
HETATM   18  O   UNK     0      -6.365  -0.480   0.249  0.00  0.00    -0.356 OA
HETATM   19  C   UNK     0      -7.029  -0.751  -0.985  0.00  0.00     0.210 C 
ENDBRANCH  15  18
ENDBRANCH   4  12
BRANCH   7  20
HETATM   20  O   UNK     0       2.372  -2.274   0.373  0.00  0.00    -0.357 OA
HETATM   21  H   UNK     0       1.420  -2.450   0.416  0.00  0.00     0.218 HD
ENDBRANCH   7  20
BRANCH   8  22
HETATM   22  O   UNK     0       4.957  -1.410   0.282  0.00  0.00    -0.351 OA
HETATM   23  C   UNK     0       5.447  -1.994  -0.922  0.00  0.00     0.210 C 
ENDBRANCH   8  22
BRANCH  11  24
HETATM   24  O   UNK     0       5.522   1.276  -0.047  0.00  0.00    -0.358 OA
HETATM   25  H   UNK     0       6.108   0.513   0.097  0.00  0.00     0.217 HD
ENDBRANCH  11  24
TORSDOF 5
