REMARK  3 active torsions:
REMARK  status: ('A' for Active; 'I' for Inactive)
REMARK    1  A    between atoms: O_3  and  C_18 
REMARK    2  A    between atoms: O_4  and  C_24 
REMARK    3  A    between atoms: C_5  and  C_11 
ROOT
HETATM    1  O   UNK     0      13.289   0.493   5.299  0.00  0.00    -0.349 OA
HETATM    2  O   UNK     0      17.519   1.944   7.091  0.00  0.00    -0.336 OA
HETATM    3  C   UNK     0      12.726  -1.886   5.208  0.00  0.00     0.050 C 
HETATM    4  C   UNK     0      14.201  -2.291   5.298  0.00  0.00     0.053 C 
HETATM    5  C   UNK     0      15.042  -1.132   5.761  0.00  0.00    -0.023 A 
HETATM    6  C   UNK     0      12.646  -0.522   4.519  0.00  0.00     0.185 C 
HETATM    7  C   UNK     0      14.558   0.187   5.729  0.00  0.00     0.088 A 
HETATM    8  C   UNK     0      15.360   1.252   6.185  0.00  0.00     0.031 A 
HETATM    9  C   UNK     0      17.076   3.313   7.181  0.00  0.00     0.078 A 
HETATM   10  C   UNK     0      16.654   0.986   6.640  0.00  0.00     0.083 A 
HETATM   11  C   UNK     0      16.346  -1.373   6.211  0.00  0.00     0.013 A 
HETATM   12  C   UNK     0      14.885   2.631   6.186  0.00  0.00     0.016 A 
HETATM   13  C   UNK     0      17.146  -0.321   6.647  0.00  0.00     0.038 A 
HETATM   14  C   UNK     0      15.690   3.588   6.654  0.00  0.00     0.012 A 
HETATM   15  C   UNK     0      18.092   4.144   6.388  0.00  0.00     0.051 C 
HETATM   16  C   UNK     0      17.141   3.696   8.664  0.00  0.00     0.051 C 
ENDROOT
BRANCH   3  17
HETATM   17  C   UNK     0      11.886  -2.948   4.531  0.00  0.00    -0.018 A 
HETATM   18  C   UNK     0      10.856  -3.590   5.221  0.00  0.00     0.075 A 
HETATM   19  C   UNK     0      10.092  -4.568   4.583  0.00  0.00     0.073 A 
HETATM   20  C   UNK     0      10.358  -4.904   3.255  0.00  0.00     0.068 A 
HETATM   21  C   UNK     0      11.386  -4.263   2.565  0.00  0.00     0.037 A 
HETATM   22  C   UNK     0      12.150  -3.285   3.203  0.00  0.00     0.013 A 
BRANCH  18  23
HETATM   23  O   UNK     0      10.584  -3.275   6.517  0.00  0.00    -0.360 OA
HETATM   24  H   UNK     0      11.390  -2.925   6.936  0.00  0.00     0.217 HD
ENDBRANCH  18  23
BRANCH  20  25
HETATM   25  O   UNK     0       9.613  -5.858   2.632  0.00  0.00    -0.361 OA
HETATM   26  H   UNK     0       9.900  -6.735   2.940  0.00  0.00     0.217 HD
ENDBRANCH  20  25
ENDBRANCH   3  17
TORSDOF 3
